default_name
 34285
  27.9610052  27.5589166  30.5053080  28.9559193  28.1004670  30.1502148
  28.8283792  29.5141955  30.2771052  29.8835426  30.0783181  30.2772901
  28.4382969  29.6458317  29.1503143  27.7867979  29.8761714  31.3246790
  26.6998058  29.7282605  30.8497248  27.8988545  28.9892733  32.4775866
  28.4968268  29.6865299  33.5662409  27.5819239  29.5739871  34.3233847
  29.6099349  28.8496827  34.0720374  30.4655775  28.2584424  33.1701401
  30.6903457  28.5573826  32.0448277  31.4815771  27.4696119  33.5242944
  32.3982267  26.8623498  32.5028880  33.4043567  27.5021044  32.4081333
  32.0254112  26.6670277  31.3828153  32.7010990  25.7578059  32.8508380
  31.6793582  27.2155771  34.9373507  32.5929977  26.5054663  35.3625796
  30.7717856  27.8311659  35.7808406  30.3113583  26.8976763  36.3675986
  29.7346125  28.6382393  35.4276233  28.9914934  29.1306947  36.2544338
  27.9357683  31.2671659  31.9013117  28.1633638  31.9407764  30.9422256
  28.9391764  31.0479846  33.0348371  28.7672823  31.7668540  33.9644613
  30.0051975  31.3306463  32.5788807  26.7002262  31.6956966  32.3928920
  26.4732667  33.2533446  32.6792502  25.0087659  33.4939251  32.6616914
  27.3909774  33.9693134  31.7557866  27.0289429  33.4529654  34.1732433
  26.2117888  33.1355299  35.2959418  25.2050412  33.7288847  35.0495308
  25.8179448  32.0351766  35.5656238  26.9473147  33.4473184  36.5783776
  26.1536368  33.3538913  37.4657484  27.9636142  32.4339524  36.8082551
  29.1712222  33.1127409  37.0805031  29.0874645  33.2272720  38.2620878
  30.3397749  32.2544553  36.8115640  30.9672529  32.3154334  35.5954278
  31.0197347  33.1974510  34.8009798  32.0533483  31.5719037  35.3452732
  32.7383681  31.6914356  34.3801079  32.5591884  30.7616444  36.4028130
  33.6371218  30.0043856  36.2131057  33.7834950  29.0569752  35.5096291
  34.7163206  30.5000229  36.1954560  31.9653910  30.7116839  37.5988186
  30.8564030  31.4516233  37.8423371  30.2857181  31.4318161  38.9426005
  27.7127528  34.7862157  36.5756872  27.1919249  35.6283625  35.9086759
  29.1041957  34.3471095  36.1981775  29.0884916  34.6520862  35.0421793
  30.0894911  34.9286109  36.5458598  27.7508293  35.2883524  37.8656616
  26.8546875  36.5464278  38.2621525  25.4492526  36.2104747  37.9386556
  27.5129886  37.7365721  37.6759518  27.0118540  36.5885247  39.8509997
  26.7257217  35.4345096  40.5983433  26.5034413  34.3520578  40.1423385
  25.6763613  35.7952304  41.0527452  27.7363354  35.2475385  41.7019424
  27.2154963  34.5100774  42.4847749  28.8900358  34.5226816  41.2028963
  30.0615178  35.1652676  41.6347228  30.2809464  34.5524331  42.6336292
  31.0613992  34.8563829  40.6432066  31.0361965  35.1765740  39.3125337
  30.6646443  36.1437827  38.7289565  32.0534981  34.6842919  38.6417805
  32.7703174  33.9522722  39.6009569  33.9648603  33.1957141  39.4798116
  34.6599017  33.0229193  38.4806072  34.3432613  32.6397847  40.6770852
  34.8991264  31.6105226  40.8365325  33.6672905  32.7708017  41.8555211
  34.1960682  32.1489730  42.9195988  34.0011084  32.6271171  43.9934772
  34.7429484  31.1358930  43.2183709  32.5471328  33.4668322  41.9907472
  32.1638891  34.0332247  40.8218473  28.2753379  36.5265179  42.3253363
  27.4123376  37.3516672  42.2870334  29.6936722  36.6308412  41.7542415
  30.6822926  36.9802813  41.1647982  29.5056251  37.8255965  41.6896571
  28.2920560  36.3575771  43.7148087  28.6647863  37.5779157  44.6671462
  27.7846244  37.5058852  45.8602680  28.7567157  38.7988059  43.8334142
  30.1226340  37.2157790  45.1646068  30.3656803  35.9167312  45.6764900
  29.8530701  34.9357711  45.2281728  29.8765959  35.9653053  46.7695875
  31.8490206  35.7165611  45.8602025  31.9663421  34.7101305  46.4924247
  32.4485725  35.4644479  44.5708889  33.5869173  36.2578768  44.4472819
  34.4527385  35.6273518  44.9692452  33.8866644  36.4278552  43.0372503
  33.2091403  37.1722973  42.1179810  32.6795108  38.2398228  42.0988284
  33.7409836  37.1465902  40.9301060  34.8258167  36.2939143  41.0795418
  35.7899660  35.8819297  40.1427489  35.8608343  36.1754967  38.9453258
  36.7196964  35.0279061  40.7185640  36.8642763  34.0899606  40.0090706
  36.7402105  34.6626000  42.0361734  37.7195835  33.8475934  42.4202327
  37.9469293  33.8954497  43.5895234  38.0744346  32.7456924  42.1463787
  35.8439335  35.0480318  42.9222682  34.9295226  35.8624972  42.3742284
  32.5868006  36.9221104  46.4231853  31.9166283  37.6931042  47.0409957
  33.2317148  37.5345344  45.1794742  32.4470751  38.2137872  44.5912978
  34.0114752  38.3305802  45.6009877  33.5604038  36.4733699  47.3110112
  34.0048470  37.3966717  48.5357553  33.1040622  37.0205850  49.6394815
  34.2327481  38.7941342  48.0763813  35.4328368  36.8152985  48.9204467
  35.7460528  35.4529908  48.6306289  34.5919209  35.1448179  48.7768714
  35.8335421  34.3394504  49.0946057  37.2121945  35.3801185  48.3058716
  37.7932265  34.3437117  48.4399302  37.3783797  35.5254486  46.8859052
  38.3628194  36.4997174  46.5853938  39.3102501  35.8090496  46.3636598
  37.9302976  37.1739764  45.3543854  36.8175354  37.9514335  45.1973291
  36.2879161  38.6961163  45.9570640  36.6403313  38.3805783  43.9808081
  37.7228930  37.8543744  43.2776291  38.1161378  37.9434672  41.9212416
  37.4539582  38.6487167  41.0050520  36.5468142  39.3489202  41.3324934
  37.1998898  38.5110699  39.8552188  39.2539969  37.3274729  41.5594435
  39.9121448  36.6110461  42.4836837  40.9297290  35.9976625  42.4182944
  39.6225253  36.4321766  43.7716687  38.5224057  37.1066490  44.1113299
  38.0365668  36.4727514  48.9642520  37.4967244  36.9289927  49.9263034
  38.4525625  37.4185966  47.8063529  37.7308821  38.3518913  47.9914539
  39.5286462  37.9079960  47.9294028  39.1627969  35.8866555  49.6081302
  40.0259422  36.7203319  50.6742901  40.7496826  35.7429701  51.4929340
  39.2414464  37.8527092  51.2020941  41.1690896  37.3930531  49.7734955
  42.0024654  36.5566405  49.0468458  42.7808925  36.1475373  49.8614038
  41.5857185  35.5531826  48.5453678  42.7442272  37.3691344  48.0301624
  43.4982968  36.5723522  47.5551988  41.8598687  37.7525315  46.9584299
  42.3537516  38.9137481  46.4089696  43.3208239  38.5839578  45.7970591
  41.2823253  39.5576157  45.5414667  40.1590069  40.1029743  46.0894749
  39.9342027  40.5069440  47.1860352  39.2106057  40.6395308  45.3143309
  38.3031851  41.2751309  45.7503095  39.4338619  40.6126378  43.8818305
  38.5273818  41.1440346  43.0370445  37.4779554  40.6286970  42.8303430
  38.1721915  42.2790105  43.1032523  40.5258061  40.0653559  43.3549401
  41.4558457  39.5094533  44.1526579  42.4775293  38.9546081  43.6954760
  43.3457218  38.6633397  48.5739517  43.1628271  38.9140454  49.7263935
  42.8595416  39.7543656  47.5967152  42.0333131  40.3679909  48.2034537
  43.7142439  40.5676301  47.4597118  44.7683399  38.4916224  48.5796916
  45.7891755  39.6017860  49.1281454  46.7899499  38.7176052  49.7438767
  45.2337628  40.7215334  49.8874131  46.4887847  40.1292069  47.7871002
  46.9345957  39.2166988  46.7969812  46.4513351  38.2633332  46.2558462
  47.6913933  38.5982980  47.4933373  47.3597182  39.9649865  45.5657492
  47.8963112  39.2274025  44.7901721  46.1881633  40.3893867  44.8206280
  46.2087743  41.7998609  44.6030628  46.6461081  41.8479257  43.4942554
  44.8229587  42.2508578  44.6158288  43.9914937  42.2928716  45.6889653
  44.1130976  42.8472553  46.7360685  42.7606014  42.6708221  45.3867408
  42.8083493  42.8642778  44.0098040  41.8406240  43.2407834  43.0848758
  40.5813964  43.5139950  43.4206230  39.6566918  44.1877661  43.1017472
  40.4533500  43.5236387  44.6083040  42.2116280  43.3308986  41.7993847
  43.4723047  43.0454071  41.4761315  43.8244432  42.7921116  40.3735482
  44.4698713  42.6724057  42.2697006  44.0641553  42.5907610  43.5258434
  48.1683648  41.2333584  45.8068808  48.8815175  40.8394528  46.6744415
  47.0958076  42.3562160  45.7086721  47.5671328  43.4112899  45.4492098
  46.6224552  42.4816443  46.7964846  49.0887587  41.3351088  44.7382705
  50.5403562  42.0014177  44.9312947  51.2644214  41.6532645  43.6979428
  51.0523683  41.6631876  46.2977459  50.2903242  43.5578360  44.9091335
  49.7303655  44.1501757  43.7722263  48.9282934  43.8522514  42.9338157
  50.6767366  43.8345750  43.0982263  49.3716599  45.5879183  44.0862364
  48.8342132  46.1779118  43.2070164  48.4922019  45.6207736  45.2403777
  49.0496815  46.4614919  46.2345383  48.7334774  47.6035700  46.1533736
  48.6382332  45.9311609  47.5045636  48.9440428  44.6121738  47.8357365
  50.0521256  44.2056155  47.6967655  48.5356727  44.0255422  48.9993251
  48.9050539  42.5945593  49.3253410  49.7973936  42.7278603  50.1130571
  48.0176406  42.0915358  49.9465061  49.3938715  41.7067517  48.6969931
  47.7036200  44.8422206  49.9127630  47.2930062  44.4256212  50.9820063
  47.4476368  46.1398386  49.4938991  46.3614276  46.2531700  49.9663466
  47.8274010  46.7211780  48.3152208  47.5736813  47.8947094  48.0677931
  50.5459097  46.4762610  44.4457787  51.5792359  46.0819553  43.9958441
  50.5374700  46.4625966  45.9799794  51.0020581  47.4192567  46.5323610
  51.3701830  45.6552687  46.2803855  50.2654958  47.7380834  43.9700746
  51.4331325  48.7924986  43.7056376  52.4795007  48.0582430  42.9311111
  51.8306085  49.4598822  44.9594669  50.7082646  49.8796706  42.8292144
  50.2894453  49.6336705  41.4609716  51.2439091  50.0954385  40.9041743
  50.3751798  48.4688103  41.2228029  48.9788611  50.3519578  41.2141186
  48.8962217  50.3788581  40.0300455  47.9561228  49.5774600  41.8504436
  46.9996923  50.4466253  42.2974833  46.3121544  51.0269139  41.5240197
  46.1985761  49.8276905  43.3228839  46.7630406  49.5254142  44.5374632
  47.9107800  49.5477720  44.8338671  45.9935613  49.0862462  45.5589969
  46.3484790  48.7089981  46.6187040  44.5878744  49.0011629  45.3358708
  43.7674472  48.6074418  46.3180993  42.6222486  48.6735608  46.6339702
  44.1110621  47.6808111  46.9851386  44.0548885  49.3105741  44.1643518
  44.8129207  49.7518257  43.1594801  44.3278844  49.9684442  42.0520731
  48.9086154  51.7860586  41.8206874  49.8968050  52.2645997  42.2895837
  47.8180686  51.6244135  42.8732160  48.4138273  51.4889737  43.8999782
  47.4110654  52.7405264  42.9192100  48.5061092  52.7517054  40.8295315
  49.5435638  53.3885939  39.8058100  50.8814181  53.4470265  40.4440150
  48.9613861  54.6966459  39.3357087  49.3926500  52.3450462  38.5593766
  50.1022590  52.5029927  37.3773964  51.2589061  52.6219641  37.6685581
  49.8560882  53.5112451  36.7852807  49.9655460  51.2512141  36.5391042
  50.7418431  51.4088528  35.6427455  50.2943466  50.1242271  37.3421356
  49.9382810  48.9856221  36.6179491  50.9333056  48.6095673  36.0741801
  49.6184534  47.9897239  37.6182526  50.4326179  46.9440469  38.0365510
  51.5566040  46.6458013  37.7884908  49.9073821  46.2182840  39.0034727
  48.6842452  46.8295689  39.2503164  47.7154367  46.5311244  40.2049336
  47.6744812  45.5814256  41.0226064  46.6260697  47.4106102  40.1098272
  46.3245641  47.6307850  41.2351336  46.5231551  48.4687890  39.2620300
  45.3934776  49.2191088  39.3812859  44.2644090  48.9833184  39.1243404
  45.4726268  50.3783532  39.6233040  47.4411484  48.8006386  38.3817561
  48.5007557  47.9492352  38.4305189  48.5700798  50.9079582  36.0590433
  47.7883798  51.1974596  36.9078354  48.7508112  49.4214874  35.7051369
  49.2963107  49.1925823  34.6635666  47.6145927  49.0955080  35.6423507
  48.2733297  51.6649644  34.9104241  46.8064845  52.2459776  34.6653900
  46.9998093  53.2159873  33.5538668  46.2375062  52.7434987  35.9209514
  46.0275454  50.9673223  34.0940755  44.7645808  51.1435544  33.4854166
  44.4541516  52.2955366  33.4443712  45.1505909  50.8312283  32.3957209
  43.7263341  50.2128573  34.0643024  42.7175215  50.3241499  33.4449373
  44.0834324  48.8326583  33.7739807  44.3445207  48.1354514  34.9706236
  43.5032630  47.3330541  35.2019889  45.5674133  47.3866419  34.8344367
  46.5829713  47.5781922  33.9074801  46.6701260  47.9585555  32.7830719
  47.6006243  46.7769365  34.0926762  47.2462243  46.0237490  35.2170050
  47.9386305  45.0210434  35.8935966  49.0574454  44.5369007  35.6197387
  47.2351312  44.5231728  36.9897670  47.8980116  43.6910487  37.5243333
  45.9771407  44.9479292  37.3730708  45.4308206  44.3464156  38.4348639
  44.8253745  44.9476284  39.2509516  45.7952862  43.2645438  38.7673790
  45.3162282  45.9363414  36.7515323  45.9938112  46.4052172  35.6801337
  43.5447298  50.3145961  35.5517684  43.6347391  51.4800344  35.7873292
  44.4358980  49.2028293  36.0961128  44.5110427  49.9150399  37.0589712
  45.3861765  48.6336655  36.5453315  42.1525737  50.0738161  35.8631705
  41.3656778  51.0599182  36.8111112  40.4490725  51.9176439  36.0105050
  42.2982207  51.7184941  37.7702767  40.4278822  50.0588180  37.6154543
  41.0320153  49.0111028  38.4084374  41.6432510  48.2051347  37.7875797
  41.7894206  49.6405324  39.0799376  39.9876963  48.4037559  39.3016746
  39.0399333  47.9966199  38.7146639  40.5257730  47.1764863  39.8619717
  40.7458725  47.3261490  41.2407760  39.9653238  46.6566758  41.8429830
  42.1121093  46.9023742  41.5213215  43.1425389  46.8676578  40.6495028
  43.1770445  46.8871886  39.4662895  44.2887711  46.5090227  41.2004753
  43.9647747  46.2794923  42.5218924  44.7369163  45.8914815  43.6257973
  46.0408431  45.5860104  43.5354523  46.3599800  44.8453316  42.6704029
  46.3697757  45.3902005  44.6558054  44.1123256  45.7672425  44.8111968
  42.7960326  46.0586050  44.8871883  42.1994521  45.8455829  45.8951562
  41.9634084  46.4271472  43.9225954  42.6261917  46.5309935  42.7507407
  39.5608488  49.2669444  40.5012428  39.5555992  50.4293546  40.2387167
  40.5096050  48.8033875  41.6048558  41.3335781  49.6569370  41.5686385
  39.8976779  48.6685455  42.6243723  38.2339248  48.9235646  40.8467047
  37.0541558  49.9987537  40.8718343  37.5718096  51.2863441  41.2176313
  36.0155999  49.3233962  41.6751474  36.5827790  50.1058082  39.3450098
  35.7538599  49.0973311  38.7597056  34.6795467  49.3462121  39.2279356
  35.9761991  48.0278119  39.2334599  35.5983356  49.3239311  37.2636392
  34.7185364  48.5942710  36.9261804  34.9568680  50.6273555  37.0475858
  35.8047408  51.4674023  36.2817875  35.5632215  51.3827939  35.1235600
  35.5663208  52.8276244  36.8445342  35.8401157  53.0903339  38.1930360
  35.6267041  52.2897684  39.0425855  35.5591015  54.2743859  38.7632551
  35.8077942  54.5526688  40.2285017  36.5495528  55.4575376  40.4484330
  36.2144330  53.6867581  40.9496712  34.7021174  54.7063630  40.6683630
  35.0127450  55.3263724  37.9205464  34.7625868  56.4531831  38.3878659
  34.7822479  54.9972164  36.5815926  33.6081400  55.1435688  36.6949002
  35.0500192  53.7977181  35.9840414  34.8365848  53.5775406  34.8117685
  36.9229829  49.4037752  36.4896615  37.6612274  48.6907280  37.0812185
  37.2136309  50.9082043  36.5139256  37.8353385  51.1646294  37.4965460
  37.8428169  51.2676765  35.5707206  36.7171391  48.9326929  35.1647480
  36.9189224  47.4017132  34.8606991  36.7259248  47.3534312  33.4054329
  36.0943183  46.5242765  35.7575302  38.4162892  47.1022604  35.2900866
  39.4817305  47.9165407  34.7790724  39.5973467  48.9373409  35.3826267
  39.2416824  48.2757859  33.6634557  40.7637097  47.1391706  34.7497081
  41.4531474  47.8431140  34.0802955  41.0884809  46.7312714  36.1358333
  41.1182154  45.3071599  36.2368294  42.2375893  44.9116134  36.2495991
  40.4889058  44.9695860  37.5427732  39.1374789  45.2631768  37.7643759
  38.2748325  45.3279407  36.9536251  38.5031885  44.9957914  38.9327452
  37.0556775  45.3186505  39.1304691  36.6587943  44.1983252  38.9754019
  36.7504251  45.5492557  40.2636603  36.2881425  45.9035868  38.4332018
  39.2733943  44.4600413  40.0134047  38.7943130  44.2621551  41.1331530
  40.6084706  44.2031898  39.7326422  40.7707015  43.3077982  40.4920827
  41.2717069  44.4594453  38.5748682  42.4664967  44.2306508  38.4646534
  40.7451835  45.8644828  33.9395416  40.0594428  45.8532005  32.9612546
  40.4222526  44.7747096  34.9802414  40.7429427  43.7656454  34.4364627
  39.2494549  44.5707648  35.0831008  42.0371526  45.6965260  33.4085882
  42.3756412  44.4447033  32.4704739  43.3422779  44.9957742  31.4799511
  41.1834732  43.7155123  31.9468015  43.0915192  43.4080129  33.4447786
  44.3058729  43.7452389  34.0702214  45.1000111  43.8428833  33.1783783
  44.1560597  44.8018349  34.5883129  44.8528795  42.5445323  34.7964573
  45.9867754  42.7321248  35.1072791  44.0726101  42.3661006  35.9918709
  43.6825662  41.0092528  36.1459581  44.5330023  40.5519368  36.8444289
  42.4202058  41.0619409  36.8804955  41.2022635  41.5225046  36.4140111
  40.7070188  41.6626369  35.3452260  40.2536367  41.5193499  37.3220387
  40.8897403  41.0628419  38.4752467  40.3704084  40.8287583  39.7722649
  39.2103562  41.0407791  40.1989240  41.3339201  40.3373286  40.6281879
  40.8743317  39.4576956  41.2749856  42.6349259  40.0738700  40.2782117
  43.4298510  39.6213254  41.2558576  44.5483621  40.0142678  41.3661035
  43.5446758  38.4633255  41.5094488  43.1403577  40.2876957  39.0615016
  42.2231930  40.7910469  38.2224852  44.7847892  41.1985634  34.0385151
  44.8755986  41.3852550  32.8613155  43.6004644  40.4626573  34.7160652
  42.6377193  39.8244412  35.0376488  43.3670011  39.9653517  33.6415104
  45.9942855  40.5561219  34.2735927  46.3868366  39.1714287  33.5549429
  47.8574540  39.1389298  33.5538026  45.5658899  38.8811240  32.3561954
  45.8329059  38.1143681  34.5776714  46.4459868  37.9884649  35.8336627
  47.4933472  37.4673687  35.5728318  46.7741838  38.9548572  36.4549700
  45.6582848  37.0353450  36.7134564  46.3936761  36.9175033  37.6499964
  44.4291015  37.6216507  37.1082917  43.6517903  36.5791808  37.6220503
  44.1658939  36.3866211  38.6820203  42.2757429  37.0624606  37.7937138
  41.5714314  37.5588737  36.7118098  41.9035867  37.3797533  35.5854414
  40.2951799  37.9868605  36.8031459  39.5578234  38.5360916  35.6238751
  38.3858693  38.6712729  35.8411278  39.5792592  37.6949057  34.7675652
  39.7946760  39.5108266  34.9738462  39.6356718  37.9203125  38.1008421
  38.4740789  38.2931325  38.2744888  40.3946997  37.3815454  39.1189241
  39.9548407  36.5410162  39.8354830  41.6904373  36.9466957  39.0412333
  42.2830085  36.5066317  40.0069139  45.2493258  35.7001065  36.0685071
  45.3729798  35.6218285  34.8851913  43.8120745  35.4591953  36.6110378
  43.6417001  34.4366192  37.1899270  43.1820164  35.3407859  35.6032001
  46.1439549  34.7439063  36.5128313  46.1112071  33.2107973  36.0348382
  47.5191428  32.7761875  36.0726702  45.3300313  32.9704058  34.7928940
  45.2605828  32.5083813  37.1933097  45.5440144  32.8255034  38.5326248
  46.5078088  32.1292935  38.6903688  45.9432429  33.8580443  38.9823603
  44.4431233  32.3063869  39.4158132  44.8519205  32.4086683  40.5350310
  43.3048940  33.1701756  39.3140676  42.1456988  32.4211378  39.4512280
  42.0495807  32.3811261  40.6398664  41.0133192  33.1961038  38.8332205
  41.0260453  33.4509616  37.4971646  41.7010181  32.9953331  36.6300940
  40.0272376  34.1159947  36.9193729  39.9101371  34.2536519  35.7436264
  38.9344374  34.5270990  37.7495254  37.9017679  35.2048707  37.2236384
  36.7949254  34.7673833  37.2027211  37.8796890  35.8696479  36.2343256
  38.9019698  34.2592535  39.0598988  39.9283375  33.5913537  39.6311160
  39.9507245  33.3531391  40.8442733  43.9618210  30.8932454  39.0669392
  44.6107801  30.2798835  38.2742827  42.4533774  31.0718787  38.7715666
  41.6537082  30.2847194  39.1604348  42.4796542  30.8769591  37.5936740
  44.1916296  30.0958088  40.1933498  43.8319888  28.5248492  40.2340756
  44.6347186  28.0177770  41.3686031  43.9031275  27.8590701  38.9150637
  42.2917860  28.5012540  40.6460508  41.8963266  28.8901354  41.9196567
  42.3526621  28.0968481  42.6913938  42.3360936  29.9126221  42.3531275
  40.3903637  28.8327431  41.9906988  40.1242260  29.2749126  43.0669288
  39.8479053  29.8006491  41.0534529  38.6840853  29.2388779  40.4913488
  37.8615693  29.3597113  41.3452561  38.3139677  29.9935349  39.2663313
  39.0667626  29.8671285  38.1151314  39.7026522  28.9061040  37.8237242
  38.7866437  30.5282451  36.9712646  39.6118386  30.3682263  35.7316484
  40.8054820  30.3923203  35.6516180  39.3463637  29.2635170  35.3465790
  39.2770777  31.0427564  34.8005146  37.6475285  31.4170390  36.9603097
  37.3323983  32.0531132  35.9546857  36.9373515  31.4919974  38.1445221
  36.0583266  32.1419077  37.6895652  37.2172027  30.8326852  39.3240494
  36.5392547  30.9675709  40.3397981  39.7806155  27.4735317  41.5676617
  40.4850626  26.5183804  41.4357518  39.0763145  27.7949573  40.2440546
  39.8369226  27.2716618  39.4811895  38.0675714  27.2335111  39.9365718
  38.8301152  27.0727918  42.5274240  39.1808704  25.9401092  43.5970010
  40.4653694  26.3093259  44.2359056  38.9439700  24.6240814  42.9889944
  37.9814298  26.1279260  44.6677933  37.8875061  27.3425976  45.4426600
  38.2847551  28.4679808  45.3527776  38.6352244  26.9023096  46.2718294
  36.4457781  27.6368265  45.7852557  36.3334201  28.4903444  46.6147688
  35.7755344  28.1943220  44.6222510  34.6960216  27.3308322  44.2024324
  33.7923906  28.0166358  44.5651768  34.8066797  27.3065192  42.7377452
  35.7372611  26.6278371  42.0043771  36.2609509  25.5583620  41.9763606
  35.6612881  26.8734730  40.7133259  34.6915953  27.8608395  40.6191276
  34.2084617  28.5606281  39.4859133  34.5467853  28.4261878  38.3184639
  33.1682803  29.4185887  39.8124779  32.2658049  29.3193291  39.0529124
  32.6830327  29.6019525  41.0659436  31.6781976  30.5028328  41.2083275
  31.1490422  31.5338827  40.9538150  30.9777673  30.1156376  42.0952504
  33.1755360  28.9952371  42.1494832  34.1691596  28.1473542  41.8499892
  35.6173027  26.4211470  46.2131445  36.2675619  25.6032004  46.7884012
  34.9142861  25.9873481  44.8999423  35.5757987  25.2173393  44.2689775
  34.0378872  25.2560045  45.2537226  34.6902676  26.8272611  47.2267038
  33.7017523  25.7847315  47.9487479  33.4215328  26.4774211  49.2550699
  34.3383460  24.4294308  48.0422652  32.4643505  25.7751331  46.9957628
  31.6103486  26.9470580  46.9428415  32.1805394  27.9962307  46.9949876
  30.9771547  26.8639483  47.9548416  30.6837848  26.8904073  45.7538843
  30.0062753  27.8600398  45.9254762  31.4208909  26.9567534  44.5391127
  30.5053968  26.6497488  43.5226066  29.8831448  27.6372420  43.2760208
  31.2122233  26.1844317  42.3462587  32.2100709  25.2309603  42.2620070
  32.3983626  24.1920831  42.8105665  32.6490859  25.0537575  41.0263622
  31.9084044  25.9620449  40.2839398  31.8971321  26.2596372  38.8969443
  32.7165047  25.6893632  38.0233825  33.7729899  25.8789220  37.5104005
  32.5295209  24.5131823  37.9401027  31.0137040  27.1654567  38.4742379
  30.2168691  27.7593258  39.3614130  29.1116295  28.0750688  39.0510250
  30.1504539  27.5940282  40.6967968  31.0011367  26.6205221  41.0719818
  29.8732662  25.6022437  45.5900429  30.3724834  24.5483542  45.8443085
  29.5084587  25.6011200  44.1047691  29.5435059  24.4649001  43.7303083
  28.3843257  25.9382083  43.8718177  28.7037133  25.6733856  46.4584132
  28.7802424  24.8809349  47.3378551  39.9145378  53.5053258  39.3684606
  35.9145378  38.5053258  52.3684606  51.9145378  52.5053258  45.3684606
  42.9145378  24.5053258  40.3684606  49.9145378  38.5053258  49.3684606
  33.9145378  46.5053258  40.3684606  39.9145378  51.5053258  32.3684606
  23.9145378  38.5053258  39.3684606  39.9145378  40.5053258  31.3684606
  43.9145378  36.5053258  52.3684606  42.9145378  52.5053258  43.3684606
  45.9145378  37.5053258  40.3684606  36.9145378  29.5053258  49.3684606
  50.9145378   1.5053258  45.3684606   9.9145378  72.5053258  25.3684606
  29.9145378  -6.4946742  31.3684606   9.9145378  72.5053258  52.3684606
  46.9145378  34.5053258  32.3684606  -1.0854622  56.5053258  24.3684606
  27.4455378  37.0363258  32.3684606  31.4455378  80.0363258  39.3684606
  48.4455378  56.0363258  35.3684606  52.4455378   1.0363258  17.3684606
  -0.5544622  20.0363258  49.3684606  72.4455378   9.0363258  32.3684606
  40.4455378  35.0363258  -6.6315394  28.4455378  31.0363258  41.3684606
  62.4455378  64.0363258  66.3684606  -0.5544622  45.0363258  49.3684606
  31.4455378  80.0363258  65.3684606  46.4455378  17.0363258  79.3684606
  -1.5544622  20.0363258  21.3684606  54.4455378  85.0363258  27.3684606
  24.4455378  33.0363258  79.3684606  19.4455378  -1.9636742  56.3684606
  31.4455378  80.0363258  13.3684606  71.4455378  50.0363258  69.3684606
  21.4455378  36.0363258   0.3684606  76.4455378  70.0363258  28.3684606
  28.4455378  58.0363258  82.3684606  73.4455378  10.0363258  58.3684606
  -1.5544622  33.0363258  37.3684606  40.4455378  12.0363258   6.3684606
  78.4455378  56.0363258  52.3684606  50.4455378  43.0363258  82.3684606
  25.4455378   9.0363258  66.3684606  69.4455378  73.0363258  56.3684606
  19.4455378   5.0363258  19.3684606  73.4455378  35.0363258   4.3684606
   7.4455378  48.0363258  74.3684606  74.4455378  34.0363258  71.3684606
  33.4455378  47.0363258  34.3684606   3.4455378  25.0363258  66.3684606
  -1.1674622  36.8923258  38.2244606  58.8325378  63.8923258  68.2244606
  21.8325378   5.8923258  16.2244606  -2.1674622  16.8923258  51.2244606
  -2.1674622  57.8923258  28.2244606  41.8325378  13.8923258   3.2244606
  47.8325378  45.8923258  83.2244606  49.8325378  -1.1076742  15.2244606
  75.8325378  72.8923258  31.2244606  75.8325378  37.8923258   3.2244606
  28.8325378  80.8923258  42.2244606  27.8325378   5.8923258  66.2244606
  -2.1674622  41.8923258  51.2244606  69.8325378   6.8923258  52.2244606
  70.8325378  53.8923258  70.2244606  41.8325378  31.8923258  -8.7755394
  71.8325378  71.8923258  59.2244606  27.8325378  -9.1076742  29.2244606
  33.8325378  81.8923258  16.2244606  77.8325378  34.8923258  73.2244606
   4.8325378  21.8923258  68.2244606  28.8325378  79.8923258  62.2244606
  70.8325378   6.8923258  28.2244606  -3.1674622  16.8923258  23.2244606
  80.8325378  52.8923258  52.2244606   6.8325378  51.8923258  74.2244606
  49.8325378  -2.1076742  44.2244606  55.8325378  86.8923258  24.2244606
  26.8325378  55.8923258  85.2244606  19.8325378  37.8923258  -2.7755394
  25.8325378  29.8923258  81.2244606   6.8325378  74.8923258  25.2244606
  47.8325378  13.8923258  81.2244606  76.8325378  10.8923258  60.2244606
  34.5396187  42.0698123  85.9044593  35.3127063  41.5227110  85.7657469
  34.8921586  42.9342372  86.1159055  36.8762465  38.2290789  83.5363043
  37.1287985  37.7072310  82.7746506  35.9387024  38.0656934  83.6389727
  38.5795781  34.6218942  84.4395456  38.7470184  35.4899178  84.8065927
  38.3892950  34.7846223  83.5156745  44.2570068  37.5498072  86.2522457
  45.1687924  37.7825459  86.0770154  43.7479715  38.1335116  85.6897535
  41.9073009  38.7201567  84.8309122  41.3919633  39.4906171  85.0697510
  41.6350318  38.0466703  85.4542184  38.2858345  40.5699092  81.3096830
  37.3785406  40.3388346  81.5087979  38.7829377  39.7736712  81.4970812
  39.4646578  40.6711687  85.8320820  38.5557797  40.3870720  85.9293290
  39.4941662  41.0910766  84.9724127  39.1622666  42.2120431  83.1708899
  38.7242096  41.4956290  82.7114536  39.9033107  42.4396546  82.6093990
  43.2833893  41.0704813  82.7640957  42.6663064  40.3451641  82.6674009
  42.8150382  41.8314173  82.4208031  35.0732439  35.2890237  81.8862261
  34.1961906  35.1679038  81.5224508  35.5490192  34.4976315  81.6341150
  39.6344831  38.3004648  81.7524486  40.5803936  38.1710856  81.8212904
  39.2559076  37.5619309  82.2293914  37.8187748  36.2254624  81.6879371
  36.9119204  35.9287737  81.7642085  38.0963729  35.9284442  80.8213657
  36.5886533  33.0841559  81.8291350  37.4505697  33.4096457  82.0887168
  36.7736877  32.2973055  81.3164416  42.6687261  43.8814851  82.1230942
  43.3723111  44.0864853  82.7388597  41.9449910  44.4491613  82.3880025
  40.6140561  21.9871108  72.2302766  39.9628541  22.5725188  71.8436779
  41.4084924  22.5177303  72.2897803  34.5396188  19.0760245  72.6289900
  35.3127064  18.5289232  72.4902776  34.8921587  19.9404495  72.8404361
  36.8762466  15.2352911  70.2608350  37.1287986  14.7134433  69.4991813
  35.9387025  15.0719057  70.3635033  42.0915826  19.6761540  72.7671750
  41.4561659  19.7496167  73.4792654  41.7613232  20.2655139  72.0890829
  38.5795782  11.6281064  71.1640762  38.7470185  12.4961301  71.5311234
  38.3892952  11.7908346  70.2402052  36.3191895  26.8542363  75.7977561
  36.2415925  27.8050188  75.8766041  35.7153539  26.5088236  76.4552487
  44.2570069  14.5560195  72.9767763  45.1687926  14.7887582  72.8015461
  43.7479717  15.1397239  72.4142842  46.7428884  20.4740451  77.7225709
  46.0579922  20.8539352  77.1722742  46.8272733  21.0835778  78.4557656
  38.5930264  22.2124516  74.5183100  38.4575939  23.0576052  74.9467948
  39.1340077  22.4143794  73.7549034  41.9073011  15.7263689  71.5554429
  41.3919634  16.4968294  71.7942816  41.6350319  15.0528825  72.1787490
  46.8807285  18.4796044  73.4907602  46.1036728  18.1407203  73.0462764
  47.5598766  18.4848667  72.8162567  40.1405746  19.7581005  75.0307164
  39.6127107  19.0233764  74.7180401  39.6393248  20.5355681  74.7847132
  38.2858346  17.5761215  68.0342137  37.3785408  17.3450468  68.2333286
  38.7829378  16.7798834  68.2216119  41.1926425  26.2858722  70.9538823
  40.5188123  26.5890419  71.5623781  41.5792247  27.0887803  70.6044280
  39.4646579  17.6773810  72.5566127  38.5557799  17.3932843  72.6538597
  39.4941663  18.0972888  71.6969434  44.6965847  21.2880399  76.3257295
  44.2428174  20.4471309  76.3822485  44.0659813  21.9241798  76.6632075
  43.1398786  23.1256896  77.2607113  43.4321760  23.6861953  76.5419478
  43.6497406  23.4185457  78.0160272  39.1622667  19.2182554  69.8954206
  38.7242097  18.5018412  69.4359843  39.9033108  19.4458668  69.3339297
  47.2795782  17.4939751  75.9530524  47.1413680  17.6841347  75.0251713
  46.9232001  18.2559133  76.4098575  39.3917640  26.4538395  73.1685902
  39.5669396  25.9826438  73.9831525  38.7050428  27.0804161  73.3967163
  43.2833895  18.0766935  69.4886263  42.6663065  17.3513763  69.3919316
  42.8150383  18.8376295  69.1453338  35.0732441  12.2952359  68.6107568
  34.1961907  12.1741160  68.2469814  35.5490194  11.5038438  68.3586456
  38.2596367  24.6478650  75.8570088  37.4763889  25.1900330  75.9508313
  38.9589112  25.1652629  76.2564329  42.6522797  19.2144967  76.0742717
  41.7179076  19.3346429  75.9047421  42.8299466  18.3117433  75.8102727
  44.1071580  21.4006107  73.6078903  44.3831424  21.2862702  74.5172777
  43.2376079  21.0023592  73.5691076  40.7425644  25.6492458  77.2511717
  40.9248038  24.8314114  77.7139469  41.5658630  25.8660150  76.8136607
  41.0767809  24.5760643  74.5126765  41.6055576  24.0653098  73.8996927
  41.3396029  24.2603173  75.3772298  44.1707993  24.5477441  75.1281748
  44.3444870  23.9823864  74.3755601  44.6636884  25.3478336  74.9461238
  50.0247384  17.3113864  76.7472048  50.4678530  16.5621189  76.3491171
  49.1473894  17.3024001  76.3645780  45.1583165  23.8644206  72.2278646
  45.8534070  24.4850898  72.4465961  45.5006316  23.0139557  72.5031024
  47.0574589  21.3143911  73.7565977  47.5825913  21.6531184  73.0315297
  46.9696941  20.3790927  73.5729112  38.7415249  27.3815894  78.1161230
  38.3020240  26.8892273  78.8094087  39.4923366  26.8388862  77.8753306
  35.7502628  21.4757827  73.6641993  35.8990749  22.1593291  73.0108665
  36.5569072  21.4562917  74.1791448  49.5680249  18.7819103  79.1394495
  50.4027140  19.2208907  79.3032056  49.7039378  18.3057756  78.3202741
  39.2498034  23.9705957  71.1353740  38.6772001  24.5896144  70.6824212
  39.8230828  24.5205319  71.6693662  42.4695294  24.2543107  72.2662322
  43.4025967  24.1888669  72.4695198  42.3818506  25.0899374  71.8076855
  45.0983310  23.5708978  69.2266270  45.0196942  23.2368841  70.1202028
  45.9192977  24.0630746  69.2257742  39.6344832  15.3066770  68.4769792
  40.5803937  15.1772978  68.5458211  39.2559077  14.5681432  68.9539221
  37.8187750  13.2316746  68.4124678  36.9119205  12.9349859  68.4887391
  38.0963731  12.9346565  67.5458964  36.5886534  10.0903682  68.5536657
  37.4505698  10.4158580  68.8132474  36.7736878   9.3035178  68.0409723
  42.6687262  20.8876973  68.8476248  43.3723112  21.0926976  69.4633904
  41.9449911  21.4553735  69.1125332  43.4985072  16.6386834  74.9678518
  43.4420274  17.0955386  74.1286151  44.0513415  15.8777519  74.7901361
  44.5773960  21.3259502  70.8974708  45.4119563  20.8940701  70.7152183
  44.4158302  21.1541516  71.8251603  44.2319852  17.8291616  72.2631048
  44.1768655  17.6635887  71.3219492  43.6065907  18.5367649  72.4193237
  53.2058235  31.8429154  80.9929885  53.8436645  31.7235901  80.2893225
  53.0879077  32.7909997  81.0517837  50.0147941  31.7956582  80.9291410
  49.6766452  31.6797646  80.0411945  50.8837709  31.3947747  80.9092416
  45.8734757  33.6492058  76.9188301  45.3099622  33.5581995  76.1504588
  45.7587152  32.8291963  77.3990793  43.4199189  35.1443250  79.7572521
  44.2120480  34.8034074  79.3418820  43.6595839  35.2538225  80.6774674
  51.4534315  37.3163026  72.2302766  50.8022295  37.9017106  71.8436779
  52.2478678  37.8469221  72.2897803  45.3789942  34.4052163  72.6289900
  46.1520818  33.8581150  72.4902776  45.7315341  35.2696412  72.8404361
  48.1431192  33.1105394  82.4258159  48.7394764  32.8861416  81.7115122
  48.2006163  32.3690139  83.0283607  47.7156220  30.5644829  70.2608350
  47.9681741  30.0426350  69.4991813  46.7780779  30.4010974  70.3635033
  52.7599503  29.5680607  78.0683093  53.5462592  29.1500031  77.7173510
  53.0238207  30.4726700  78.2364741  52.9309580  35.0053458  72.7671750
  52.2955413  35.0788084  73.4792654  52.6006987  35.5947057  72.0890829
  58.1607930  29.5055841  78.9716072  58.8933102  28.9355057  79.2053901
  57.4047286  29.1177441  79.4122577  47.4352509  32.4672935  72.4632725
  47.3188767  31.7917838  73.1313809  47.5454769  31.9805309  71.6464878
  49.7784050  31.9283082  76.1679414  49.4142257  31.4013703  76.8792335
  50.6351166  31.5381551  75.9945899  49.4189537  26.9572982  71.1640762
  49.5863939  27.8253218  71.5311234  49.2286706  27.1200263  70.2402052
  52.1764870  35.4189961  82.8306593  51.8765593  36.3214999  82.7222400
  51.8315930  35.1522144  83.6827746  45.6277352  31.8703758  78.8643297
  44.7027848  31.7379972  79.0720989  45.8761765  32.6497977  79.3613240
  55.5762014  27.9372501  80.5104030  54.6678891  27.8687909  80.2162791
  55.5249610  28.4144446  81.3385856  49.3978758  29.4130639  72.1487429
  49.2778383  29.8587690  72.9872910  48.7031346  29.7615957  71.5900967
  42.9886163  31.5137031  79.6987086  43.1178544  31.7671510  80.6126498
  42.3083614  32.1064739  79.3791741  47.1585650  42.1834281  75.7977561
  47.0809680  43.1342106  75.8766041  46.5547293  41.8380154  76.4552487
  55.0963824  29.8852112  72.9767763  56.0081680  30.1179499  72.8015461
  54.5873471  30.4689157  72.4142842  49.7335662  29.2449347  83.9862613
  50.5796857  29.6688761  84.1297262  49.6734299  28.5882971  84.6801176
  53.7033406  34.8677931  80.3681345  53.0742269  35.0323645  79.6657413
  53.3159068  35.2819540  81.1392309  57.5822638  35.8032369  77.7225709
  56.8973676  36.1831270  77.1722742  57.6666487  36.4127695  78.4557656
  54.8373570  33.4492328  84.3221052  55.0490465  34.0924088  83.6455433
  54.7903318  32.6154644  83.8542982  52.4399799  26.0610148  81.2257624
  51.5784278  26.3591402  81.5174362  52.4662233  26.2780547  80.2938657
  49.2561368  34.6052339  77.6331430  49.7199714  34.8840042  76.8436052
  48.9918166  33.7035784  77.4504521  46.1485449  34.1523821  80.5711193
  46.7186806  34.5811089  79.9328678  46.7393561  33.8706405  81.2695379
  48.1930254  30.7275491  74.4420995  48.8954298  31.1796535  74.9094921
  47.8610883  30.0859310  75.0700888  41.9355588  28.9859044  79.7438129
  41.1454642  29.2416573  79.2678239  42.4266836  29.8007382  79.8490169
  43.8870334  29.3503623  76.7021605  43.0901497  29.4622318  77.2205101
  43.6595926  29.6890275  75.8362496  49.4324019  37.5416434  74.5183100
  49.2969694  38.3867970  74.9467948  49.9733831  37.7435712  73.7549034
  42.8853416  35.0591872  75.0911025  43.3977937  35.8535122  75.2416590
  43.5376129  34.3618162  75.0244627  44.6948301  38.1757628  77.1733779
  44.8714929  39.0975593  76.9854762  45.4905134  37.8616048  77.6028158
  45.8179616  39.6935802  83.1744121  46.3687041  39.5652865  82.4021115
  44.9791092  39.9930691  82.8239014  40.8502333  33.3880526  75.8670596
  41.6877555  33.7977535  75.6504304  41.0280601  32.4479968  75.8370790
  52.7466765  31.0555607  71.5554429  52.2313389  31.8260212  71.7942816
  52.4744074  30.3820743  72.1787490  50.3313876  25.9005308  76.6139667
  49.4755472  25.5112158  76.4345306  50.7440828  25.9797269  75.7539453
  51.8613023  23.4351651  81.0131227  51.3577818  23.3981786  80.1999032
  52.1543630  24.3444394  81.0727884  48.1055909  23.5190381  80.0197409
  48.9708905  23.3233189  79.6603298  48.1733418  23.2900733  80.9466765
  57.7201039  33.8087962  73.4907602  56.9430482  33.4699121  73.0462764
  58.3992520  33.8140585  72.8162567  52.5353068  28.9282699  73.3814210
  52.2303204  29.2428848  74.2324353  53.4883510  29.0064119  73.4241543
  50.9799500  35.0872922  75.0307164  50.4520862  34.3525682  74.7180401
  50.4787003  35.8647599  74.7847132  55.9592346  33.2821943  80.1474210
  55.3016021  33.9721204  80.2354339  56.7632745  33.6718375  80.4908197
  45.7118228  25.7492589  77.3913776  46.2861980  25.5267770  76.6586968
  46.2989210  25.8181283  78.1442377  54.7697805  31.6366316  78.1978152
  55.2829687  32.2696307  78.6999862  55.4199029  31.0367511  77.8321512
  46.0387815  27.7797050  71.4109661  45.2025127  28.1171736  71.7318936
  45.8992584  27.6446029  70.4736798  48.0140895  22.6233838  76.1188845
  47.3605308  22.3082855  75.4945460  47.9721370  22.0009578  76.8448668
  49.1252100  32.9053133  68.0342137  48.2179162  32.6742386  68.2333286
  49.6223132  32.1090752  68.2216119  52.0320179  41.6150640  70.9538823
  51.3581878  41.9182337  71.5623781  52.4186001  42.4179720  70.6044280
  51.2478636  29.1115771  80.4436493  50.3301197  29.3330718  80.2858181
  51.6638779  29.1862082  79.5848200  52.0313684  30.5107187  75.5739173
  52.7785503  31.0228584  75.2646295  52.3005273  30.1891240  76.4343566
  50.3040334  33.0065728  72.5566127  49.3951553  32.7224760  72.6538597
  50.3335418  33.4264806  71.6969434  55.5359601  36.6172317  76.3257295
  55.0821928  35.7763227  76.3822485  54.9053568  37.2533715  76.6632075
  54.4792521  27.5464303  77.5557962  53.7415278  27.0341689  77.8868205
  54.7319294  27.1064685  76.7441239  53.9792540  38.4548814  77.2607113
  54.2715515  39.0153871  76.5419478  54.4891161  38.7477375  78.0160272
  54.5804148  20.3240555  78.1499731  54.8863025  19.4637918  77.8625646
  55.3056753  20.9158175  77.9498725  40.8728504  30.7271242  76.5381329
  40.6752904  30.1340602  75.8132396  40.3175168  30.4223452  77.2557268
  48.8525228  30.6194348  78.6575922  48.9073838  29.6668185  78.5818399
  48.0416430  30.7753787  79.1417221  50.0016422  34.5474471  69.8954206
  49.5635851  33.8310330  69.4359843  50.7426862  34.7750586  69.3339297
  46.7917588  29.2371408  76.4166301  45.9785453  29.5365578  76.8231493
  47.2876582  28.8427097  77.1340784  48.9426166  39.2329165  78.3500566
  48.9002344  39.4590011  77.4209098  49.8588864  38.9992539  78.4986367
  52.3891799  29.7013232  85.2481195  52.7441187  29.9284705  86.1075661
  53.0363931  30.0331609  84.6258451  58.1189536  32.8231668  75.9530524
  57.9807435  33.0133264  75.0251713  57.7625755  33.5851051  76.4098575
  46.2831662  26.8089763  82.0327536  46.9231042  26.6678522  81.3350500
  45.4509193  26.5224277  81.6566138  58.1458916  34.8908195  80.9641796
  58.5795423  34.7983484  81.8124850  58.8590497  34.8665696  80.3261812
  47.0591966  36.1092194  78.1462529  47.8532565  35.6142514  77.9445104
  46.3483659  35.5810057  77.7830234  43.3674730  30.2535276  74.2222281
  42.4372318  30.1919731  74.4392244  43.4632202  29.7311228  73.4258923
  43.2860279  26.7790088  76.8100523  43.5467096  27.6935422  76.7009684
  44.1077451  26.3114531  76.9597136  50.8374911  32.6570551  84.0561828
  51.7666971  32.8081711  83.8830796  50.4165941  32.7454572  83.2010475
  49.6363242  36.6821216  81.8260366  49.4974328  36.3140000  82.6986304
  48.8477839  37.1968855  81.6544324  50.2311394  41.7830312  73.1685902
  50.4063150  41.3118355  73.9831525  49.5444182  42.4096078  73.3967163
  51.1868458  36.0602818  79.2149204  50.8518290  36.0203588  80.1106854
  50.6872403  35.3947534  78.7419614  54.1227649  33.4058853  69.4886263
  53.5056820  32.6805681  69.3919316  53.6544138  34.1668213  69.1453338
  47.7895002  31.1790408  84.2285464  48.4994621  30.5383600  84.1872083
  47.7464310  31.4303303  85.1511645  44.7972480  44.9319675  79.9425763
  45.0369078  45.5638199  80.6204781  43.9541676  44.5807715  80.2291122
  45.9126195  27.6244277  68.6107568  45.0355661  27.5033078  68.2469814
  46.3883948  26.8330355  68.3586456  37.4328335  32.4121437  78.7049075
  38.1199375  32.0983167  78.1170090  37.2776464  33.3162802  78.4316326
  49.0990121  39.9770568  75.8570088  48.3157643  40.5192248  75.9508313
  49.7982866  40.4944547  76.2564329  52.4086771  25.7865197  78.5004293
  52.9055471  25.0335159  78.1805364  51.6373753  25.8229514  77.9347503
  60.2616529  31.4905562  80.1422585  60.2506405  32.3730278  79.7716518
  59.3933908  31.1377113  79.9477122  53.4916552  34.5436884  76.0742717
  52.5572831  34.6638347  75.9047421  53.6693220  33.6409351  75.8102727
  48.9921740  27.9282580  78.2275978  48.6219527  27.3753620  78.9156884
  49.4880832  27.3240713  77.6750978  56.8789103  30.3854203  76.6092751
  57.3449555  31.2182195  76.5353054  57.3296604  29.9199185  77.3138009
  54.9465334  36.7298025  73.6078903  55.2225178  36.6154619  74.5172777
  54.0769833  36.3315510  73.5691076  54.6212224  30.9424682  83.1483546
  53.9683675  31.1900590  82.4935999  54.9992604  30.1288821  82.8146024
  51.5819398  40.9784376  77.2511717  51.7641793  40.1606032  77.7139469
  52.4052384  41.1952068  76.8136607  51.9161564  39.9052561  74.5126765
  52.4449330  39.3945015  73.8996927  52.1789783  39.5895091  75.3772298
  42.4178657  37.9216430  82.2562099  43.0032093  37.1760118  82.3890003
  42.2203495  38.2320387  83.1398763  45.2717312  40.9567677  77.2724541
  44.6027687  41.4413805  76.7888581  45.1330182  41.2036898  78.1867920
  40.6404889  29.2186132  74.0520473  40.9358330  28.3096811  73.9987527
  39.7392925  29.1973872  73.7301476  52.5490968  40.9393396  80.8570882
  52.4242107  40.1383136  80.3481827  53.2070059  41.4339590  80.3684852
  44.1699136  27.2942129  80.0348022  43.4485722  27.9078097  79.8955495
  44.9592392  27.8299894  79.9564668  42.3692730  26.9000230  74.1759798
  42.0405437  26.0197609  73.9934904  42.7232101  26.8447899  75.0636188
  51.6172309  38.5355133  78.6854784  51.4697272  37.6071840  78.8662354
  52.4425803  38.5575223  78.2011859  45.4834554  27.1873200  74.5435276
  45.8230626  27.7159121  73.8213884  45.9306674  27.5253606  75.3193843
  55.2206431  39.3583691  79.7719657  56.1452979  39.1526553  79.6344108
  55.0521735  39.1100093  80.6808998  47.4702701  25.6847821  72.7428569
  48.1911063  26.0629074  72.2392286  46.8468005  26.4036698  72.8463547
  51.6133824  26.3892970  73.6786901  51.8297438  27.2717608  73.3775729
  51.1327891  25.9979184  72.9492543  46.3533045  29.3478684  80.2557646
  46.2077626  29.6618987  81.1481927  45.8758249  29.9663584  79.7028544
  48.2129428  26.3381232  80.3038535  48.1990997  25.4422325  79.9670833
  48.9301856  26.3451895  80.9376821  50.0655559  26.7718572  82.3491663
  49.8073336  27.6935642  82.3475993  49.5340599  26.3749006  83.0392127
  55.0101747  39.8769359  75.1281748  55.1838625  39.3115781  74.3755601
  55.5030639  40.6770254  74.9461238  40.8278707  31.8884028  83.1945307
  40.2832175  32.6643836  83.3265581  41.7058057  32.2354833  83.0364428
  47.6166324  25.2195612  75.5726105  47.7382235  24.2912258  75.7716993
  47.3268366  25.2334298  74.6604421  50.4857514  22.9050522  78.7092825
  50.5079211  22.9689855  77.7544805  50.9025573  22.0655031  78.9033331
  60.8641139  32.6405782  76.7472048  61.3072285  31.8913107  76.3491171
  59.9867649  32.6315918  76.3645780  55.9976920  39.1936123  72.2278646
  56.6927825  39.8142816  72.4465961  56.3400070  38.3431475  72.5031024
  57.8968343  36.6435829  73.7565977  58.4219667  36.9823102  73.0315297
  57.8090696  35.7082844  73.5729112  49.5809004  42.7107812  78.1161230
  49.1413994  42.2184191  78.8094087  50.3317121  42.1680780  77.8753306
  42.0601343  38.9019353  78.1185858  42.8859363  38.6023125  77.7384502
  41.7095395  38.1326975  78.5675647  47.0282876  38.2545821  80.1883532
  46.4062885  37.5916526  79.8885760  47.6987743  38.2806953  79.5057180
  40.2609948  36.8205679  79.0774792  39.4241856  36.3927854  78.8958793
  40.2333593  37.0138123  80.0145583  46.5896383  36.8049745  73.6641993
  46.7384503  37.4885209  73.0108665  47.3962826  36.7854835  74.1791448
  60.4074003  34.1111020  79.1394495  61.2420895  34.5500824  79.3032056
  60.5433132  33.6349673  78.3202741  44.3449016  32.8314922  74.6703061
  44.0995058  31.9277252  74.8683272  44.5144930  32.8332073  73.7282539
  43.6144663  28.5643280  72.1689223  42.9213908  28.6387635  71.5129259
  43.3696415  27.8003623  72.6910740  52.2858320  20.1238881  79.5728714
  52.5660074  19.4562070  80.1989140  53.0708927  20.3167977  79.0603378
  50.0891788  39.2997875  71.1353740  49.5165755  39.9188062  70.6824212
  50.6624582  39.8497237  71.6693662  53.3089048  39.5835025  72.2662322
  54.2419721  39.5180587  72.4695198  53.2212261  40.4191292  71.8076855
  55.9377065  38.9000896  69.2266270  55.8590696  38.5660759  70.1202028
  56.7586732  39.3922663  69.2257742  58.6355256  31.7662635  82.4342588
  58.6031576  30.8278636  82.6202272  59.2455880  31.8446672  81.7008413
  50.4738587  30.6358688  68.4769792  51.4197692  30.5064896  68.5458211
  50.0952832  29.8973350  68.9539221  56.4460471  22.3014694  78.4396684
  56.2485293  21.9929782  79.3240016  57.0560177  23.0276333  78.5694614
  48.6581504  28.5608664  68.4124678  47.7512959  28.2641777  68.4887391
  48.9357485  28.2638482  67.5458964  39.5759444  29.8815028  78.8623724
  39.2562229  29.0280336  78.5698098  39.0292873  30.0963606  79.6181691
  43.3539352  32.5977469  82.5793231  43.5725362  33.5294576  82.5981264
  43.7665126  32.2385443  83.3648034  50.2743570  23.1045554  74.5668919
  49.4644298  22.7592639  74.9424165  50.9627987  22.7953098  75.1556531
  52.2034118  22.1823601  76.1893216  52.7565157  22.6019054  76.8483239
  52.4404204  21.2559349  76.2316172  47.4280289  25.4195599  68.5536657
  48.2899453  25.7450498  68.8132474  47.6130633  24.6327095  68.0409723
  39.4447704  33.5017939  80.8316846  38.7511176  33.0871892  80.3186800
  40.1920695  33.5438476  80.2350265  55.5812925  24.2924126  75.6971880
  55.0011594  24.9508930  75.3149932  55.3148858  23.4701470  75.2859297
  54.0316491  23.6929184  77.8993200  54.5316270  23.8045718  77.0907519
  54.6752099  23.3890236  78.5394009  41.3584447  33.4336193  78.7082861
  41.3355135  33.5323880  77.7564744  41.6685083  34.2801344  79.0300027
  44.0171825  35.4912348  82.8229475  44.9715078  35.4596290  82.7559407
  43.8184348  35.0302972  83.6379701  44.6071207  34.0613464  85.3900273
  45.4264096  34.5557543  85.4135110  44.8808015  33.1445432  85.3617840
  54.3637803  26.4524216  74.7528228  53.4763658  26.7373867  74.5348423
  54.7791792  26.2917980  73.9055505  57.7152339  26.4770737  78.4682567
  58.4912729  26.9667190  78.7407184  56.9900473  26.9028791  78.9254437
  42.3722054  41.0331967  79.8399673  42.2376522  40.2732368  79.2737671
  41.9554116  41.7572867  79.3728462  53.5081017  36.2168891  68.8476248
  54.2116867  36.4218893  69.4633904  52.7843665  36.7845653  69.1125332
  54.3378827  31.9678752  74.9678518  54.2814028  32.4247304  74.1286151
  54.8907169  31.2069437  74.7901361  58.1483633  27.7568484  75.7928638
  57.8920567  27.3565120  76.6236846  57.5236501  28.4712278  75.6678777
  62.4595971  30.4964557  78.2999929  61.8995529  30.5657747  79.0731491
  61.8539474  30.3205542  77.5799425  45.5291179  41.9301284  80.0518116
  45.4123564  42.8746717  79.9496806  44.7083626  41.6274846  80.4403915
  55.4167714  36.6551420  70.8974708  56.2513318  36.2232619  70.7152183
  55.2552057  36.4833434  71.8251603  55.0713606  33.1583533  72.2631048
  55.0162410  32.9927805  71.3219492  54.4459661  33.8659566  72.4193237
  48.3809732  22.6591642  71.8416366  48.3688401  23.6033482  71.9984637
  49.2733154  22.4761788  71.5475827  48.3099296  41.3360533  79.9284123
  47.3594927  41.3362394  79.8148495  48.6131782  40.5893267  79.4120157
  52.1961851  19.2534419  76.0962303  51.4294247  18.6992906  76.2418985
  52.6072556  19.3256288  76.9576454  56.2183697  49.7344081  72.6289900
  56.9914573  49.1873068  72.4902776  56.5709096  50.5988330  72.8404361
  58.5549975  45.8936747  70.2608350  58.8075495  45.3718268  69.4991813
  57.6174534  45.7302892  70.3635033  58.2746263  47.7964853  72.4632725
  58.1582522  47.1209756  73.1313809  58.3848523  47.3097227  71.6464878
  60.2583291  42.2864899  71.1640762  60.4257694  43.1545136  71.5311234
  60.0680460  42.4492181  70.2402052  60.2372512  44.7422557  72.1487429
  60.1172137  45.1879608  72.9872910  59.5425101  45.0907875  71.5900967
  65.9357578  45.2144030  72.9767763  66.8475435  45.4471417  72.8015461
  65.4267226  45.7981074  72.4142842  59.0324009  46.0567409  74.4420995
  59.7348052  46.5088453  74.9094921  58.7004637  45.4151228  75.0700888
  54.7264088  44.6795541  76.7021605  53.9295251  44.7914235  77.2205101
  54.4989680  45.0182193  75.8362496  51.6896087  48.7172444  75.8670596
  52.5271309  49.1269452  75.6504304  51.8674355  47.7771886  75.8370790
  63.5860520  46.3847525  71.5554429  63.0707143  47.1552129  71.7942816
  63.3137828  45.7112661  72.1787490  61.1707631  41.2297225  76.6139667
  60.3149227  40.8404076  76.4345306  61.5834582  41.3089186  75.7539453
  63.3746823  44.2574617  73.3814210  63.0696958  44.5720766  74.2324353
  64.3277265  44.3356037  73.4241543  56.5511982  41.0784506  77.3913776
  57.1255734  40.8559688  76.6586968  57.1382965  41.1473201  78.1442377
  56.8781569  43.1088967  71.4109661  56.0418882  43.4463654  71.7318936
  56.7386339  42.9737947  70.4736798  58.8534650  37.9525755  76.1188845
  58.1999062  37.6374772  75.4945460  58.8115124  37.3301496  76.8448668
  59.9645855  48.2345050  68.0342137  59.0572917  48.0034304  68.2333286
  60.4616887  47.4382670  68.2216119  61.1434088  48.3357645  72.5566127
  60.2345307  48.0516678  72.6538597  61.1729172  48.7556724  71.6969434
  65.4197903  35.6532473  78.1499731  65.7256779  34.7929836  77.8625646
  66.1450507  36.2450093  77.9498725  51.7122259  46.0563159  76.5381329
  51.5146658  45.4632520  75.8132396  51.1568923  45.7515370  77.2557268
  60.8410176  49.8766389  69.8954206  60.4029606  49.1602248  69.4359843
  61.5820617  50.1042504  69.3339297  57.6311342  44.5663326  76.4166301
  56.8179208  44.8657496  76.8231493  58.1270336  44.1719014  77.1340784
  54.2068484  45.5827193  74.2222281  53.2766072  45.5211649  74.4392244
  54.3025956  45.0603146  73.4258923  54.1254033  42.1082006  76.8100523
  54.3860851  43.0227339  76.7009684  54.9471206  41.6406449  76.9597136
  64.9621404  48.7350771  69.4886263  64.3450574  48.0097599  69.3919316
  64.4937892  49.4960131  69.1453338  56.7519950  42.9536195  68.6107568
  55.8749416  42.8324996  68.2469814  57.2277703  42.1622273  68.3586456
  48.2722090  47.7413355  78.7049075  48.9593130  47.4275085  78.1170090
  48.1170218  48.6454719  78.4316326  51.4798643  44.5478050  74.0520473
  51.7752084  43.6388728  73.9987527  50.5786679  44.5265790  73.7301476
  53.2086485  42.2292148  74.1759798  52.8799191  41.3489527  73.9934904
  53.5625856  42.1739816  75.0636188  56.3228308  42.5165118  74.5435276
  56.6624381  43.0451039  73.8213884  56.7700429  42.8545524  75.3193843
  58.3096455  41.0139739  72.7428569  59.0304818  41.3920992  72.2392286
  57.6861759  41.7328616  72.8463547  62.4527578  41.7184888  73.6786901
  62.6691193  42.6009526  73.3775729  61.9721645  41.3271101  72.9492543
  58.4560078  40.5487530  75.5726105  58.5775990  39.6204176  75.7716993
  58.1662121  40.5626216  74.6604421  61.3251269  38.2342440  78.7092825
  61.3472966  38.2981773  77.7544805  61.7419328  37.3946949  78.9033331
  55.1842770  48.1606840  74.6703061  54.9388812  47.2569170  74.8683272
  55.3538685  48.1623990  73.7282539  54.4538418  43.8935197  72.1689223
  53.7607663  43.9679552  71.5129259  54.2090170  43.1295541  72.6910740
  63.1252074  35.4530799  79.5728714  63.4053828  34.7853988  80.1989140
  63.9102681  35.6459894  79.0603378  61.3132341  45.9650605  68.4769792
  62.2591446  45.8356814  68.5458211  60.9346586  45.2265267  68.9539221
  59.4975258  43.8900582  68.4124678  58.5906714  43.5933695  68.4887391
  59.7751240  43.5930400  67.5458964  50.4153199  45.2106945  78.8623724
  50.0955983  44.3572253  78.5698098  49.8686627  45.4255523  79.6181691
  61.1137324  38.4337472  74.5668919  60.3038053  38.0884557  74.9424165
  61.8021741  38.1245015  75.1556531  63.0427873  37.5115518  76.1893216
  63.5958911  37.9310972  76.8483239  63.2797959  36.5851266  76.2316172
  58.2674043  40.7487517  68.5536657  59.1293207  41.0742415  68.8132474
  58.4524387  39.9619013  68.0409723  66.4206680  39.6216044  75.6971880
  65.8405349  40.2800848  75.3149932  66.1542612  38.7993388  75.2859297
  65.2031558  41.7816134  74.7528228  64.3157413  42.0665785  74.5348423
  65.6185547  41.6209897  73.9055505  64.3474771  51.5460809  68.8476248
  65.0510621  51.7510811  69.4633904  63.6237420  52.1137570  69.1125332
  59.2203486  37.9883560  71.8416366  59.2082156  38.9325400  71.9984637
  60.1126908  37.8053706  71.5475827  63.0355606  34.5826337  76.0962303
  62.2688001  34.0284823  76.2418985  63.4466311  34.6548205  76.9576454
  40.6140562  -1.0066769  58.9548072  39.9628542  -0.4212689  58.5682086
  41.4084925  -0.4760574  59.0143110  36.3191897   3.8604486  62.5222867
  36.2415926   4.8112311  62.6011348  35.7153540   3.5150358  63.1797793
  38.5930266  -0.7813361  61.2428407  38.4575940   0.0638175  61.6713255
  39.1340078  -0.5794083  60.4794341  41.1926426   3.2920845  57.6784130
  40.5188125   3.5952542  58.2869088  41.5792248   4.0949925  57.3289587
  43.1398787   0.1319019  63.9852419  43.4321762   0.6924076  63.2664785
  43.6497408   0.4247580  64.7405579  39.3917641   3.4600517  59.8931209
  39.5669397   2.9888560  60.7076832  38.7050429   4.0866283  60.1212470
  38.2596368   1.6540772  62.5815395  37.4763890   2.1962453  62.6753619
  38.9589113   2.1714752  62.9809636  40.7425645   2.6554581  63.9757023
  40.9248040   1.8376236  64.4384776  41.5658631   2.8722273  63.5381913
  41.0767811   1.5822766  61.2372072  41.6055577   1.0715220  60.6242234
  41.3396030   1.2665296  62.1017605  44.1707994   1.5539564  61.8527055
  44.3444872   0.9885986  61.1000907  44.6636885   2.3540459  61.6706545
  38.7415251   4.3878017  64.8406537  38.3020241   3.8954396  65.5339394
  39.4923367   3.8450985  64.5998612  35.7502630  -1.5180050  60.3887299
  35.8990750  -0.8344586  59.7353972  36.5569073  -1.5374960  60.9036755
  39.2498035   0.9768080  57.8599047  38.6772002   1.5958267  57.4069518
  39.8230829   1.5267442  58.3938969  42.4695295   1.2605230  58.9907629
  43.4025968   1.1950792  59.1940504  42.3818508   2.0961497  58.5322162
  45.0983312   0.5771100  55.9511576  45.0196943   0.2430964  56.8447334
  45.9192978   1.0692868  55.9503049  53.2058236   8.8491276  67.7175192
  53.8436646   8.7298023  67.0138532  53.0879079   9.7972120  67.7763144
  50.0147942   8.8018704  67.6536716  49.6766454   8.6859769  66.7657251
  50.8837710   8.4009869  67.6337722  45.8734758  10.6554181  63.6433607
  45.3099623  10.5644118  62.8749895  45.7587153   9.8354085  64.1236100
  50.4967725   9.9553556  73.6122922  50.4856366   9.5606354  72.7403425
  50.6588365   9.2219629  74.2056693  43.4199190  12.1505372  66.4817828
  44.2120482  11.8096197  66.0664127  43.6595840  12.2600347  67.4019981
  51.4534317  14.3225148  58.9548072  50.8022296  14.9079229  58.5682086
  52.2478679  14.8531343  59.0143110  45.3789944  11.4114286  59.3535206
  46.1520820  10.8643273  59.2148082  45.7315343  12.2758535  59.5649668
  47.2174986  12.7390668  72.5602106  46.9264852  13.6436299  72.4448772
  47.8531971  12.7807195  73.2746175  48.1431193  10.1167516  69.1503465
  48.7394765   9.8923539  68.4360428  48.2006165   9.3752262  69.7528913
  47.7156222   7.5706952  56.9853656  47.9681742   7.0488473  56.2237119
  46.7780781   7.4073097  57.0880340  52.7599504   6.5742730  64.7928400
  53.5462594   6.1562153  64.4418817  53.0238209   7.4788822  64.9610048
  52.9309582  12.0115580  59.4917056  52.2955415  12.0850207  60.2037961
  52.6006988  12.6009179  58.8136136  58.1607931   6.5117963  65.6961378
  58.8933103   5.9417180  65.9299208  57.4047287   6.1239564  66.1367884
  47.4352510   9.4735058  59.1878031  47.3188768   8.7979961  59.8559116
  47.5454770   8.9867432  58.3710184  49.7784051   8.9345205  62.8924721
  49.4142258   8.4075826  63.6037642  50.6351167   8.5443674  62.7191206
  49.4189538   3.9635104  57.8886069  49.5863941   4.8315341  58.2556540
  49.2286707   4.1262386  56.9647358  52.1764871  12.4252083  69.5551899
  51.8765594  13.3277122  69.4467707  51.8315931  12.1584266  70.4073052
  45.6277353   8.8765880  65.5888604  44.7027849   8.7442094  65.7966296
  45.8761766   9.6560099  66.0858546  55.5762015   4.9434623  67.2349337
  54.6678892   4.8750032  66.9408098  55.5249611   5.4206568  68.0631162
  49.3978759   6.4192762  58.8732736  49.2778384   6.8649813  59.7118216
  48.7031347   6.7678080  58.3146274  42.9886164   8.5199154  66.4232393
  43.1178545   8.7733633  67.3371805  42.3083615   9.1126862  66.1037048
  47.1585651  19.1896404  62.5222867  47.0809681  20.1404229  62.6011348
  46.5547295  18.8442276  63.1797793  55.0963825   6.8914235  59.7013070
  56.0081681   7.1241622  59.5260768  54.5873472   7.4751279  59.1388149
  53.3804593  11.3138863  73.3374363  53.7887949  10.8721273  72.5928995
  52.6581854  10.7391490  73.5908555  49.7335663   6.2511470  70.7107920
  50.5796858   6.6750883  70.8542569  49.6734301   5.5945094  71.4046483
  53.7033408  11.8740054  67.0926651  53.0742270  12.0385768  66.3902719
  53.3159070  12.2881663  67.8637615  57.5822639  12.8094491  64.4471015
  56.8973678  13.1893393  63.8968049  57.6666489  13.4189818  65.1802963
  54.8373571  10.4554450  71.0466359  55.0490466  11.0986210  70.3700740
  54.7903319   9.6216767  70.5788289  52.4399800   3.0672271  67.9502931
  51.5784279   3.3653525  68.2419668  52.4662235   3.2842670  67.0183964
  49.2561369  11.6114462  64.3576737  49.7199715  11.8902165  63.5681359
  48.9918168  10.7097906  64.1749827  46.1485450  11.1585943  67.2956500
  46.7186808  11.5873212  66.6573984  46.7393562  10.8768528  67.9940685
  48.1930255   7.7337614  61.1666302  48.8954299   8.1858658  61.6340228
  47.8610884   7.0921433  61.7946195  41.9355589   5.9921167  66.4683435
  41.1454643   6.2478695  65.9923546  42.4266837   6.8069504  66.5735476
  55.9519399  13.3326406  69.2188716  56.7736843  12.9306593  68.9371398
  55.9481802  13.2294640  70.1704832  43.8870335   6.3565746  63.4266912
  43.0901498   6.4684440  63.9450408  43.6595927   6.6952398  62.5607802
  49.7176002  12.8810449  71.3749427  49.7820435  13.3430856  72.2107598
  49.0086926  12.2507814  71.5031736  49.4324020  14.5478557  61.2428407
  49.2969695  15.3930092  61.6713255  49.9733833  14.7497834  60.4794341
  42.8853417  12.0653995  61.8156332  43.3977938  12.8597245  61.9661897
  43.5376130  11.3680285  61.7489933  44.6948302  15.1819751  63.8979085
  44.8714930  16.1037716  63.7100069  45.4905136  14.8678170  64.3273465
  51.0592496  15.1702123  75.3728749  50.6156351  14.3838502  75.0549653
  51.7209710  15.3581274  74.7072640  45.8179618  16.6997925  69.8989427
  46.3687043  16.5714988  69.1266421  44.9791094  16.9992814  69.5484320
  53.1573735  15.4504923  73.4010150  53.1392210  16.2713804  72.9090419
  54.0793655  15.3258998  73.6260291  49.6146789  12.9649053  74.2433659
  50.1475125  12.2037341  74.0132967  49.0860870  12.6722704  74.9857813
  40.8502334  10.3942649  62.5915903  41.6877556  10.8039657  62.3749610
  41.0280602   9.4542091  62.5616096  52.7466766   8.0617730  58.2799735
  52.2313390   8.8322334  58.5188123  52.4744075   7.3882866  58.9032797
  50.3313877   2.9067430  63.3384974  49.4755474   2.5174281  63.1590613
  50.7440829   2.9859391  62.4784759  57.7201040  10.8150084  60.2152909
  56.9430483  10.4761244  59.7708071  58.3992521  10.8202707  59.5407874
  52.5353070   5.9344822  60.1059517  52.2303205   6.2490971  60.9569660
  53.4883512   6.0126242  60.1486850  50.9799501  12.0935045  61.7552471
  50.4520863  11.3587805  61.4425708  50.4787004  12.8709721  61.5092439
  55.9592347  10.2884065  66.8719517  55.3016022  10.9783327  66.9599646
  56.7632747  10.6780497  67.2153503  45.7118229   2.7554711  64.1159082
  46.2861981   2.5329893  63.3832275  46.2989211   2.8243406  64.8687683
  54.7697806   8.6428438  64.9223459  55.2829688   9.2758430  65.4245168
  55.4199030   8.0429634  64.5566819  46.0387816   4.7859172  58.1354967
  45.2025128   5.1233859  58.4564242  45.8992586   4.6508152  57.1982104
  49.1252102   9.9115255  54.7587444  48.2179163   9.6804509  54.9578593
  49.6223134   9.1152875  54.9461425  52.0320180  18.6212762  57.6784130
  51.3581879  18.9244459  58.2869088  52.4186002  19.4241843  57.3289587
  51.2478637   6.1177894  67.1681799  50.3301198   6.3392841  67.0103487
  51.6638781   6.1924204  66.3093507  52.0313685   7.5169309  62.2984479
  52.7785504   8.0290707  61.9891602  52.3005274   7.1953362  63.1588873
  50.3040335  10.0127850  59.2811434  49.3951554   9.7286883  59.3783904
  50.3335419  10.4326929  58.4214741  55.5359602  13.6234440  63.0502601
  55.0821930  12.7825350  63.1067792  54.9053569  14.2595838  63.3877381
  54.4792522   4.5526426  64.2803269  53.7415279   4.0403812  64.6113511
  54.7319296   4.1126807  63.4686546  53.9792542  15.4610936  63.9852419
  54.2715516  16.0215993  63.2664785  54.4891162  15.7539497  64.7405579
  40.8728505   7.7333364  63.2626636  40.6752905   7.1402725  62.5377703
  40.3175169   7.4285574  63.9802575  48.8525229   7.6256471  65.3821229
  48.9073839   6.6730307  65.3063706  48.0416431   7.7815910  65.8662528
  50.0016423  11.5536594  56.6199512  49.5635853  10.8372453  56.1605150
  50.7426864  11.7812709  56.0584604  46.7917589   6.2433530  63.1411608
  45.9785454   6.5427701  63.5476800  47.2876583   5.8489219  63.8586090
  48.9426167  16.2391287  65.0745873  48.9002346  16.4652134  64.1454405
  49.8588866  16.0054662  65.2231674  52.3891801   6.7075355  71.9726502
  52.7441188   6.9346828  72.8320968  53.0363932   7.0393732  71.3503757
  58.1189538   9.8293791  62.6775831  57.9807436  10.0195387  61.7497020
  57.7625756  10.5913174  63.1343882  46.2831664   3.8151886  68.7572843
  46.9231043   3.6740645  68.0595806  45.4509194   3.5286399  68.3811445
  58.1458917  11.8970318  67.6887102  58.5795424  11.8045607  68.5370156
  58.8590498  11.8727818  67.0507118  47.0591968  13.1154316  64.8707835
  47.8532566  12.6204637  64.6690410  46.3483660  12.5872180  64.5075541
  51.8786812  15.4972412  69.2220203  51.9323834  16.0663348  69.9897919
  51.0101593  15.6674297  68.8574240  43.3674731   7.2597398  60.9467588
  42.4372319   7.1981854  61.1637550  43.4632203   6.7373351  60.1504229
  43.2860280   3.7852211  63.5345830  43.5467097   4.6997544  63.4254990
  44.1077452   3.3176654  63.6842443  59.0074467  11.9394018  70.2219988
  59.2010357  12.8439829  70.4679263  58.9075085  11.4801438  71.0558573
  50.8374912   9.6632674  70.7807135  51.7666972   9.8143834  70.6076102
  50.4165942   9.7516695  69.9255781  49.6363244  13.6883338  68.5505672
  49.4974329  13.3202123  69.4231611  48.8477840  14.2030978  68.3789630
  50.2311396  18.7892435  59.8931209  50.4063151  18.3180478  60.7076832
  49.5444184  19.4158201  60.1212470  51.1868459  13.0664941  65.9394510
  50.8518291  13.0265711  66.8352160  50.6872404  12.4009657  65.4664921
  54.1227650  10.4120975  56.2131570  53.5056821   9.6867804  56.1164623
  53.6544139  11.1730336  55.8698644  47.7895003   8.1852530  70.9530771
  48.4994622   7.5445723  70.9117390  47.7464312   8.4365425  71.8756952
  55.7781782  15.1219884  73.8737350  55.7194328  14.4379104  73.2067933
  56.1801300  15.8638874  73.4217976  44.7972481  21.9381798  66.6671069
  45.0369079  22.5700322  67.3450088  43.9541677  21.5869838  66.9536428
  45.9126196   4.6306400  55.3352874  45.0355663   4.5095201  54.9715121
  46.3883949   3.8392478  55.0831763  55.7799189  13.0859468  72.1051330
  54.8925968  12.7485390  72.2277729  56.3497740  12.3542499  72.3420095
  37.4328336   9.4183559  65.4294381  38.1199376   9.1045290  64.8415397
  37.2776465  10.3224924  65.1561633  49.3100343  17.7460920  69.0712573
  49.2370514  18.5515892  69.5831878  48.8677736  17.9452886  68.2460595
  49.0990122  16.9832690  62.5815395  48.3157644  17.5254370  62.6753619
  49.7982868  17.5006670  62.9809636  60.2616530   8.4967685  66.8667892
  60.2506406   9.3792401  66.4961825  59.3933909   8.1439236  66.6722429
  51.7699026  17.6447754  71.2270732  52.4826998  18.2795219  71.1546633
  51.2789055  17.7411620  70.4110734  53.4916553  11.5499007  62.7988023
  52.5572832  11.6700469  62.6292728  53.6693222  10.6471474  62.5348033
  48.9921741   4.9344703  64.9521285  48.6219529   4.3815743  65.6402190
  49.4880834   4.3302836  64.3996285  56.8789105   7.3916326  63.3338058
  57.3449557   8.2244318  63.2598360  57.3296605   6.9261308  64.0383316
  46.8210940  15.3942198  72.0476303  47.5220399  16.0278681  72.2005697
  46.3506055  15.7356929  71.2871942  54.9465336  13.7360147  60.3324210
  55.2225180  13.6216742  61.2418084  54.0769834  13.3377632  60.2936383
  54.6212226   7.9486805  69.8728853  53.9683676   8.1962712  69.2181306
  54.9992606   7.1350943  69.5391330  51.5819400  17.9846498  63.9757023
  51.7641794  17.1668154  64.4384776  52.4052386  18.2014190  63.5381913
  51.9161565  16.9114683  61.2372072  52.4449332  16.4007138  60.6242234
  52.1789785  16.5957214  62.1017605  42.4178658  14.9278553  68.9807405
  43.0032095  14.1822241  69.1135310  42.2203496  15.2382509  69.8644069
  45.2717313  17.9629800  63.9969848  44.6027688  18.4475928  63.5133888
  45.1330183  18.2099020  64.9113226  49.4122582  19.9973544  70.5952506
  49.9640890  20.1605165  71.3601591  49.7528775  20.5877981  69.9232531
  54.2633456  14.8234801  76.4501161  54.8073360  15.4364759  75.9556115
  53.6820301  15.3814379  76.9668174  40.6404890   6.2248255  60.7765780
  40.9358331   5.3158933  60.7232834  39.7392926   6.2035994  60.4546782
  52.5490969  17.9455519  67.5816188  52.4242108  17.1445259  67.0727134
  53.2070060  18.4401712  67.0930158  44.1699137   4.3004252  66.7593328
  43.4485723   4.9140219  66.6200802  44.9592393   4.8362016  66.6809974
  54.6125877  15.7464539  69.2095738  53.6656213  15.6269890  69.1374065
  54.9608650  14.8587037  69.2922000  42.3692732   3.9062353  60.9005105
  42.0405438   3.0259732  60.7180211  42.7232102   3.8510021  61.7881494
  51.6172311  15.5417255  65.4100091  51.4697273  14.6133963  65.5907661
  52.4425804  15.5637346  64.9257166  45.4834555   4.1935322  61.2680583
  45.8230627   4.7221244  60.5459191  45.9306675   4.5315729  62.0439149
  55.2206432  16.3645814  66.4964963  56.1452980  16.1588675  66.3589414
  55.0521736  16.1162215  67.4054305  47.4702702   2.6909944  59.4673875
  48.1911065   3.0691197  58.9637592  46.8468006   3.4098821  59.5708853
  51.6133825   3.3955093  60.4032208  51.8297439   4.2779731  60.1021036
  51.1327892   3.0041306  59.6737850  46.3533046   6.3540806  66.9802952
  46.2077627   6.6681109  67.8727234  45.8758250   6.9725707  66.4273851
  48.2129429   3.3443354  67.0283842  48.1990998   2.4484448  66.6916140
  48.9301857   3.3514018  67.6622128  50.0655560   3.7780694  69.0736969
  49.8073338   4.6997765  69.0721300  49.5340600   3.3811129  69.7637434
  55.0101749  16.8831482  61.8527055  55.1838626  16.3177904  61.1000907
  55.5030640  17.6832376  61.6706545  40.8278708   8.8946151  69.9190614
  40.2832177   9.6705959  70.0510888  41.7058058   9.2416955  69.7609735
  47.6166325   2.2257734  62.2971412  47.7382236   1.2974381  62.4962300
  47.3268367   2.2396420  61.3849728  60.8641140   9.6467904  63.4717354
  61.3072286   8.8975230  63.0736478  59.9867650   9.6378041  63.0891086
  55.9976921  16.1998246  58.9523953  56.6927826  16.8204939  59.1711268
  56.3400071  15.3493597  59.2276331  57.8968344  13.6497951  60.4811284
  58.4219668  13.9885224  59.7560604  57.8090697  12.7144967  60.2974418
  49.5588393  17.5632025  72.6101160  49.8675519  17.3181172  73.4823860
  50.3563875  17.7678664  72.1220031  49.5809005  19.7169935  64.8406537
  49.1413995  19.2246313  65.5339394  50.3317122  19.1742902  64.5998612
  42.0601344  15.9081476  64.8431165  42.8859364  15.6085247  64.4629809
  41.7095396  15.1389098  65.2920954  47.0282877  15.2607944  66.9128839
  46.4062886  14.5978649  66.6131067  47.6987744  15.2869076  66.2302486
  40.2609949  13.8267802  65.8020099  39.4241857  13.3989976  65.6204100
  40.2333594  14.0200245  66.7390890  46.5896384  13.8111867  60.3887299
  46.7384504  14.4947332  59.7353972  47.3962828  13.7916957  60.9036755
  60.4074005  11.1173143  65.8639802  61.2420896  11.5562947  66.0277362
  60.5433133  10.6411796  65.0448048  44.3449017   9.8377045  61.3948368
  44.0995059   8.9339375  61.5928578  44.5144932   9.8394195  60.4527846
  43.6144665   5.5705402  58.8934530  42.9213910   5.6449757  58.2374566
  43.3696417   4.8065746  59.4156046  50.0891790  16.3059998  57.8599047
  49.5165757  16.9250185  57.4069518  50.6624583  16.8559359  58.3938969
  53.3089049  16.5897148  58.9907629  54.2419723  16.5242709  59.1940504
  53.2212262  17.4253415  58.5322162  55.9377066  15.9063018  55.9511576
  55.8590698  15.5722882  56.8447334  56.7586733  16.3984786  55.9503049
  58.6355257   8.7724757  69.1587895  58.6031577   7.8340758  69.3447579
  59.2455881   8.8508794  68.4253720  50.4738588   7.6420810  55.2015099
  51.4197693   7.5127018  55.2703517  50.0952833   6.9035472  55.6784527
  48.6581505   5.5670787  55.1369984  47.7512961   5.2703899  55.2132698
  48.9357486   5.2700605  54.2704271  39.5759446   6.8877150  65.5869031
  39.2562230   6.0342458  65.2943405  39.0292874   7.1025728  66.3426998
  43.3539353   9.6039591  69.3038537  43.5725363  10.5356699  69.3226571
  43.7665127   9.2447566  70.0893341  47.4280290   2.4257722  55.2781964
  48.2899454   2.7512620  55.5377781  47.6130634   1.6389218  54.7655029
  39.4447706  10.5080062  67.5562152  38.7511177  10.0934014  67.0432107
  40.1920697  10.5500598  66.9595571  41.3584448  10.4398315  65.4328167
  41.3355136  10.5386003  64.4810050  41.6685085  11.2863466  65.7545333
  44.0171826  12.4974470  69.5474782  44.9715080  12.4658413  69.4804713
  43.8184350  12.0365094  70.3625008  44.6071208  11.0675587  72.1145579
  45.4264097  11.5619665  72.1380417  44.8808016  10.1507555  72.0863147
  42.3722055  18.0394090  66.5644979  42.2376523  17.2794491  65.9982978
  41.9554117  18.7634990  66.0973768  53.5081018  13.2231013  55.5721555
  54.2116868  13.4281016  56.1879210  52.7843667  13.7907775  55.8370638
  54.3378828   8.9740875  61.6923825  54.2814030   9.4309426  60.8531457
  54.8907171   8.2131559  61.5146668  62.4595972   7.5026680  65.0245236
  61.8995530   7.5719869  65.7976798  61.8539475   7.3267665  64.3044732
  45.5291181  18.9363407  66.7763422  45.4123565  19.8808839  66.6742112
  44.7083627  18.6336969  67.1649221  55.4167715  13.6613543  57.6220015
  56.2513319  13.2294741  57.4397490  55.2552058  13.4895556  58.5496909
  55.0713607  10.1645656  58.9876354  55.0162411   9.9989927  58.0464798
  54.4459663  10.8721689  59.1438544  46.5545695  19.5891669  69.9919351
  47.4572942  19.6215279  70.3085846  46.3283065  18.6592120  70.0065686
  48.3099297  18.3422655  66.6529429  47.3594928  18.3424517  66.5393801
  48.6131783  17.5955390  66.1365464  64.0451990  24.1783194  67.7175192
  64.6830400  24.0589941  67.0138532  63.9272833  25.1264038  67.7763144
  60.8541697  24.1310622  67.6536716  60.5160208  24.0151687  66.7657251
  61.7231465  23.7301787  67.6337722  56.7128512  25.9846098  63.6433607
  56.1493377  25.8936035  62.8749895  56.5980907  25.1646003  64.1236100
  61.3361480  25.2845474  73.6122922  61.3250120  24.8898272  72.7403425
  61.4982119  24.5511546  74.2056693  54.2592944  27.4797290  66.4817828
  55.0514236  27.1388115  66.0664127  54.4989594  27.5892265  67.4019981
  62.2928071  29.6517066  58.9548072  61.6416051  30.2371146  58.5682086
  63.0872434  30.1823261  59.0143110  56.2183698  26.7406203  59.3535206
  56.9914574  26.1935190  59.2148082  56.5709097  27.6050453  59.5649668
  58.0568741  28.0682585  72.5602106  57.7658607  28.9728216  72.4448772
  58.6925725  28.1099113  73.2746175  58.9824948  25.4459434  69.1503465
  59.5788520  25.2215456  68.4360428  59.0399919  24.7044179  69.7528913
  58.5549976  22.8998869  56.9853656  58.8075497  22.3780391  56.2237119
  57.6174535  22.7365015  57.0880340  63.5993259  21.9034648  64.7928400
  64.3856348  21.4854071  64.4418817  63.8631963  22.8080740  64.9610048
  63.7703336  27.3407498  59.4917056  63.1349169  27.4142124  60.2037961
  63.4400743  27.9301097  58.8136136  69.0001686  21.8409881  65.6961378
  69.7326858  21.2709098  65.9299208  68.2441042  21.4531481  66.1367884
  58.2746265  24.8026975  59.1878031  58.1582523  24.1271879  59.8559116
  58.3848525  24.3159349  58.3710184  60.6177806  24.2637122  62.8924721
  60.2536013  23.7367743  63.6037642  61.4744922  23.8735591  62.7191206
  60.2583293  19.2927022  57.8886069  60.4257695  20.1607258  58.2556540
  60.0680462  19.4554304  56.9647358  63.0158626  27.7544001  69.5551899
  62.7159349  28.6569040  69.4467707  62.6709685  27.4876184  70.4073052
  56.4671107  24.2057798  65.5888604  55.5421604  24.0734012  65.7966296
  56.7155521  24.9852017  66.0858546  66.4155770  20.2726541  67.2349337
  65.5072647  20.2041950  66.9408098  66.3643365  20.7498486  68.0631162
  60.2372514  21.7484680  58.8732736  60.1172139  22.1941730  59.7118216
  59.5425102  22.0969997  58.3146274  53.8279918  23.8491071  66.4232393
  53.9572300  24.1025550  67.3371805  53.1477370  24.4418779  66.1037048
  57.9979406  34.5188321  62.5222867  57.9203435  35.4696146  62.6011348
  57.3941049  34.1734194  63.1797793  60.4896635  21.6916187  75.1784234
  59.7129969  22.2510107  75.1687099  61.1287198  22.1772970  75.6999104
  65.9357580  22.2206153  59.7013070  66.8475436  22.4533539  59.5260768
  65.4267227  22.8043197  59.1388149  58.7443008  24.5001640  74.7402201
  59.4857692  25.0386684  74.4637025  58.0379993  25.1267929  74.8973753
  64.2198347  26.6430781  73.3374363  64.6281703  26.2013191  72.5928995
  63.4975609  26.0683408  73.5908555  60.5729417  21.5803387  70.7107920
  61.4190613  22.0042801  70.8542569  60.5128055  20.9237012  71.4046483
  64.5427162  27.2031971  67.0926651  63.9136024  27.3677685  66.3902719
  64.1552824  27.6173581  67.8637615  68.4216394  28.1386409  64.4471015
  67.7367432  28.5185310  63.8968049  68.5060243  28.7481736  65.1802963
  65.6767326  25.7846368  71.0466359  65.8884221  26.4278128  70.3700740
  65.6297074  24.9508685  70.5788289  63.2793554  18.3964189  67.9502931
  62.4178034  18.6945442  68.2419668  63.3055989  18.6134588  67.0183964
  60.0955124  26.9406379  64.3576737  60.5593469  27.2194082  63.5681359
  59.8311922  26.0389824  64.1749827  56.9879205  26.4877861  67.2956500
  57.5580562  26.9165129  66.6573984  57.5787317  26.2060446  67.9940685
  59.0324010  23.0629532  61.1666302  59.7348053  23.5150575  61.6340228
  58.7004638  22.4213351  61.7946195  57.4804371  21.6541288  75.5417511
  56.8503032  22.3357569  75.7752908  57.3740459  21.5424370  74.5970649
  52.7749344  21.3213084  66.4683435  51.9848398  21.5770613  65.9923546
  53.2660591  22.1361422  66.5735476  66.7913153  28.6618323  69.2188716
  67.6130597  28.2598511  68.9371398  66.7875556  28.5586558  70.1704832
  54.7264089  21.6857664  63.4266912  53.9295253  21.7976358  63.9450408
  54.4989681  22.0244316  62.5607802  60.5569757  28.2102367  71.3749427
  60.6214189  28.6722774  72.2107598  59.8480681  27.5799732  71.5031736
  51.0587047  21.5743575  68.8998426  51.3095085  22.4590585  69.1656002
  51.5946595  21.3948176  68.1273518  60.2717775  29.8770474  61.2428407
  60.1363449  30.7222010  61.6713255  60.8127587  30.0789752  60.4794341
  53.7247172  27.3945912  61.8156332  54.2371693  28.1889163  61.9661897
  54.3769885  26.6972203  61.7489933  55.5342057  30.5111669  63.8979085
  55.7108685  31.4329633  63.7100069  56.3298890  30.1970088  64.3273465
  54.8194413  22.5576300  73.7741248  54.7047928  21.6561558  74.0748347
  53.9638931  22.8039997  73.4226065  61.8986251  30.4994041  75.3728749
  61.4550105  29.7130419  75.0549653  62.5603465  30.6873191  74.7072640
  56.6573372  32.0289842  69.8989427  57.2080797  31.9006906  69.1266421
  55.8184848  32.3284731  69.5484320  63.9967489  30.7796841  73.4010150
  63.9785964  31.6005722  72.9090419  64.9187409  30.6550916  73.6260291
  60.4540543  28.2940970  74.2433659  60.9868880  27.5329258  74.0132967
  59.9254624  28.0014622  74.9857813  51.6896089  25.7234567  62.5915903
  52.5271311  26.1331575  62.3749610  51.8674356  24.7834009  62.5616096
  63.5860521  23.3909647  58.2799735  63.0707144  24.1614252  58.5188123
  63.3137829  22.7174783  58.9032797  61.1707632  18.2359348  63.3384974
  60.3149228  17.8466198  63.1590613  61.5834584  18.3151309  62.4784759
  62.7006779  15.7705691  67.7376534  62.1971574  15.7335826  66.9244339
  62.9937385  16.6798434  67.7973190  58.9449664  15.8544421  66.7442715
  59.8102661  15.6587230  66.3848605  59.0127173  15.6254773  67.6712072
  68.5594795  26.1442002  60.2152909  67.7824238  25.8053161  59.7708071
  69.2386276  26.1494625  59.5407874  63.3746824  21.2636739  60.1059517
  63.0696960  21.5782889  60.9569660  64.3277266  21.3418159  60.1486850
  61.8193256  27.4226963  61.7552471  61.2914617  26.6879722  61.4425708
  61.3180759  28.2001639  61.5092439  66.7986102  25.6175983  66.8719517
  66.1409776  26.3075245  66.9599646  67.6026501  26.0072415  67.2153503
  56.5511983  18.0846629  64.1159082  57.1255735  17.8621810  63.3832275
  57.1382966  18.1535323  64.8687683  65.6091561  23.9720356  64.9223459
  66.1223442  24.6050348  65.4245168  66.2592785  23.3721551  64.5566819
  56.8781571  20.1151090  58.1354967  56.0418883  20.4525777  58.4564242
  56.7386340  19.9800070  57.1982104  58.8534651  14.9587878  62.8434152
  58.1999064  14.6436895  62.2190766  58.8115125  14.3363618  63.5693975
  59.9645856  25.2407173  54.7587444  59.0572918  25.0096426  54.9578593
  60.4616888  24.4444792  54.9461425  62.8713935  33.9504680  57.6784130
  62.1975634  34.2536377  58.2869088  63.2579757  34.7533760  57.3289587
  62.0872392  21.4469811  67.1681799  61.1694953  21.6684758  67.0103487
  62.5032535  21.5216122  66.3093507  62.8707439  22.8461227  62.2984479
  63.6179258  23.3582624  61.9891602  63.1399029  22.5245280  63.1588873
  61.1434089  25.3419768  59.2811434  60.2345309  25.0578801  59.3783904
  61.1729173  25.7618846  58.4214741  66.3753357  28.9526357  63.0502601
  65.9215684  28.1117267  63.1067792  65.7447324  29.5887756  63.3877381
  65.3186276  19.8818343  64.2803269  64.5809033  19.3695730  64.6113511
  65.5713050  19.4418725  63.4686546  64.8186296  30.7902854  63.9852419
  65.1109271  31.3507911  63.2664785  65.3284917  31.0831415  64.7405579
  65.4197904  12.6594595  64.8745038  65.7256781  11.7991959  64.5870953
  66.1450509  13.2512216  64.6744032  51.7122260  23.0625282  63.2626636
  51.5146660  22.4694643  62.5377703  51.1568924  22.7577492  63.9802575
  59.6918984  22.9548388  65.3821229  59.7467593  22.0022225  65.3063706
  58.8810186  23.1107827  65.8662528  60.8410177  26.8828511  56.6199512
  60.4029607  26.1664370  56.1605150  61.5820618  27.1104626  56.0584604
  57.6311343  21.5725448  63.1411608  56.8179209  21.8719619  63.5476800
  58.1270338  21.1781137  63.8586090  59.7819921  31.5683205  65.0745873
  59.7396100  31.7944051  64.1454405  60.6982620  31.3346580  65.2231674
  63.2285555  22.0367273  71.9726502  63.5834943  22.2638746  72.8320968
  63.8757686  22.3685649  71.3503757  68.9583292  25.1585709  62.6775831
  68.8201191  25.3487304  61.7497020  68.6019511  25.9205091  63.1343882
  57.1225418  19.1443804  68.7572843  57.7624798  19.0032563  68.0595806
  56.2902949  18.8578317  68.3811445  68.9852672  27.2262236  67.6887102
  69.4189178  27.1337525  68.5370156  69.6984252  27.2019736  67.0507118
  57.8985722  28.4446234  64.8707835  58.6926321  27.9496554  64.6690410
  57.1877414  27.9164097  64.5075541  62.7180567  30.8264330  69.2220203
  62.7717589  31.3955266  69.9897919  61.8495348  30.9966215  68.8574240
  54.2068486  22.5889316  60.9467588  53.2766074  22.5273771  61.1637550
  54.3025958  22.0665269  60.1504229  54.1254035  19.1144129  63.5345830
  54.3860852  20.0289462  63.4254990  54.9471207  18.6468571  63.6842443
  55.5978960  20.5281886  70.7044654  56.2702013  20.3199248  70.0557303
  54.7708746  20.3303972  70.2649887  69.8468221  27.2685936  70.2219988
  70.0404111  28.1731747  70.4679263  69.7468839  26.8093355  71.0558573
  61.6768666  24.9924592  70.7807135  62.6060726  25.1435751  70.6076102
  61.2559696  25.0808612  69.9255781  60.4756998  29.0175256  68.5505672
  60.3368084  28.6494040  69.4231611  59.6871594  29.5322896  68.3789630
  61.0705150  34.1184353  59.8931209  61.2456906  33.6472396  60.7076832
  60.3837938  34.7450119  60.1212470  62.0262213  28.3956859  65.9394510
  61.6912046  28.3557629  66.8352160  61.5266159  27.7301575  65.4664921
  56.0006457  23.8024489  71.4647091  55.8626255  23.0704728  72.0658630
  56.9111381  23.7133389  71.1831279  64.9621405  25.7412893  56.2131570
  64.3450576  25.0159721  56.1164623  64.4937893  26.5022253  55.8698644
  58.6288758  23.5144448  70.9530771  59.3388376  22.8737640  70.9117390
  58.5858066  23.7657343  71.8756952  66.6175537  30.4511801  73.8737350
  66.5588083  29.7671022  73.2067933  67.0195055  31.1930791  73.4217976
  57.3417692  20.5009666  72.7726411  56.8055049  20.0500404  73.4248007
  56.7534400  20.6355575  72.0296875  55.6366235  37.2673715  66.6671069
  55.8762834  37.8992239  67.3450088  54.7935432  36.9161755  66.9536428
  56.7519951  19.9598317  55.3352874  55.8749417  19.8387118  54.9715121
  57.2277704  19.1684396  55.0831763  66.6192944  28.4151385  72.1051330
  65.7319723  28.0777307  72.2277729  67.1891495  27.6834417  72.3420095
  48.2722091  24.7475477  65.4294381  48.9593131  24.4337207  64.8415397
  48.1170220  25.6516842  65.1561633  53.0756813  19.6365674  69.8579405
  52.9915002  19.0291343  69.1229815  52.2539519  20.1274692  69.8588901
  60.1494097  33.0752838  69.0712573  60.0764269  33.8807809  69.5831878
  59.7071490  33.2744804  68.2460595  59.9383877  32.3124608  62.5815395
  59.1551399  32.8546288  62.6753619  60.6376622  32.8298587  62.9809636
  63.2480527  18.1219237  65.2249600  63.7449226  17.3689200  64.9050670
  62.4767508  18.1583554  64.6592809  71.1010284  23.8259603  66.8667892
  71.0900161  24.7084318  66.4961825  70.2327664  23.4731154  66.6722429
  62.6092781  32.9739672  71.2270732  63.3220753  33.6087137  71.1546633
  62.1182809  33.0703538  70.4110734  64.3310308  26.8790924  62.7988023
  63.3966586  26.9992387  62.6292728  64.5086976  25.9763391  62.5348033
  59.8315496  20.2636620  64.9521285  59.4613283  19.7107661  65.6402190
  60.3274588  19.6594754  64.3996285  67.7182859  22.7208244  63.3338058
  68.1843311  23.5536235  63.2598360  68.1690360  22.2553225  64.0383316
  57.6604694  30.7234115  72.0476303  58.3614154  31.3570598  72.2005697
  57.1899809  31.0648847  71.2871942  65.7859090  29.0652065  60.3324210
  66.0618934  28.9508660  61.2418084  64.9163589  28.6669550  60.2936383
  65.4605980  23.2778723  69.8728853  64.8077430  23.5254630  69.2181306
  65.8386360  22.4642861  69.5391330  62.4213154  33.3138416  63.9757023
  62.6035549  32.4960072  64.4384776  63.2446140  33.5306108  63.5381913
  62.7555320  32.2406601  61.2372072  63.2843086  31.7299056  60.6242234
  63.0183539  31.9249131  62.1017605  53.2572412  30.2570470  68.9807405
  53.8425849  29.5114158  69.1135310  53.0597251  30.5674427  69.8644069
  56.1111068  33.2921718  63.9969848  55.4421443  33.7767845  63.5133888
  55.9723937  33.5390938  64.9113226  47.8490067  22.8276071  67.7011848
  47.8874167  22.2939661  68.4948967  47.3430360  22.3011276  67.0822826
  60.2516336  35.3265461  70.5952506  60.8034644  35.4897083  71.3601591
  60.5922530  35.9169899  69.9232531  55.2280829  17.6740611  71.1974391
  55.2922156  18.5355442  70.7851788  55.1647950  17.0614613  70.4646749
  54.7033102  19.7463744  74.8447425  55.3305141  19.3640821  75.4584949
  53.8461021  19.5277945  75.2103118  65.1027210  30.1526719  76.4501161
  65.6467114  30.7656677  75.9556115  64.5214055  30.7106297  76.9668174
  51.4798645  21.5540173  60.7765780  51.7752086  20.6450851  60.7232834
  50.5786680  21.5327912  60.4546782  63.3884723  33.2747437  67.5816188
  63.2635863  32.4737177  67.0727134  64.0463815  33.7693630  67.0930158
  55.0092892  19.6296169  66.7593328  54.2879477  20.2432137  66.6200802
  55.7986147  20.1653934  66.6809974  65.4519632  31.0756457  69.2095738
  64.5049967  30.9561808  69.1374065  65.8002405  30.1878955  69.2922000
  57.8119205  16.9650596  73.0333980  58.3353607  17.2112892  73.7960290
  57.5931538  17.7970631  72.6137118  53.2086486  19.2354270  60.9005105
  52.8799192  18.3551649  60.7180211  53.5625857  19.1801939  61.7881494
  62.4566065  30.8709173  65.4100091  62.3091028  29.9425880  65.5907661
  63.2819559  30.8929264  64.9257166  56.3228309  19.5227240  61.2680583
  56.6624382  20.0513161  60.5459191  56.7700430  19.8607646  62.0439149
  66.0600187  31.6937732  66.4964963  66.9846734  31.4880593  66.3589414
  65.8915490  31.4454133  67.4054305  59.0171750  17.9064291  70.7183651
  58.6768571  17.1072104  71.1204331  58.3110756  18.2066002  70.1460484
  59.6688222  14.9913603  69.1710974  60.4914291  14.5174081  69.0489864
  59.9126286  15.7704087  69.6709660  58.3096457  18.0201862  59.4673875
  59.0304819  18.3983114  58.9637592  57.6861761  18.7390739  59.5708853
  62.4527579  18.7247011  60.4032208  62.6691194  19.6071649  60.1021036
  61.9721647  18.3333224  59.6737850  57.1926801  21.6832724  66.9802952
  57.0471382  21.9973027  67.8727234  56.7152004  22.3017624  66.4273851
  59.0523184  18.6735272  67.0283842  59.0384752  17.7776365  66.6916140
  59.7695612  18.6805936  67.6622128  60.9049314  19.1072612  69.0736969
  60.6467092  20.0289683  69.0721300  60.3734355  18.7103047  69.7637434
  65.8495503  32.2123399  61.8527055  66.0232381  31.6469822  61.1000907
  66.3424394  33.0124294  61.6706545  51.6672463  24.2238068  69.9190614
  51.1225931  24.9997876  70.0510888  52.5451813  24.5708873  69.7609735
  58.4560080  17.5549652  62.2971412  58.5775991  16.6266298  62.4962300
  58.1662122  17.5688338  61.3849728  61.3251270  15.2404563  65.4338132
  61.3472967  15.3043896  64.4790111  61.7419329  14.4009071  65.6278638
  71.7034894  24.9759822  63.4717354  72.1466040  24.2267147  63.0736478
  70.8261405  24.9669959  63.0891086  66.8370676  31.5290164  58.9523953
  67.5321580  32.1496856  59.1711268  67.1793826  30.6785515  59.2276331
  52.4538485  23.3507965  72.8120770  51.7120221  23.4990600  73.3985401
  52.1331229  23.6116230  71.9487520  68.7362099  28.9789869  60.4811284
  69.2613423  29.3177142  59.7560604  68.6484451  28.0436884  60.2974418
  60.3982147  32.8923943  72.6101160  60.7069274  32.6473090  73.4823860
  61.1957629  33.0970581  72.1220031  60.4202760  35.0461852  64.8406537
  59.9807750  34.5538231  65.5339394  61.1710876  34.5034820  64.5998612
  52.8995098  31.2373393  64.8431165  53.7253118  30.9377165  64.4629809
  52.5489150  30.4681016  65.2920954  57.8676632  30.5899862  66.9128839
  57.2456641  29.9270567  66.6131067  58.5381499  30.6160993  66.2302486
  51.1003704  29.1559720  65.8020099  50.2635612  28.7281894  65.6204100
  51.0727349  29.3492163  66.7390890  57.4290139  29.1403785  60.3887299
  57.5778259  29.8239249  59.7353972  58.2356582  29.1208875  60.9036755
  60.1700448  19.8213022  73.2607703  59.3003757  20.1146588  72.9890292
  60.4059928  20.4053467  73.9814967  71.2467759  26.4465060  65.8639802
  72.0814650  26.8854865  66.0277362  71.3826888  25.9703714  65.0448048
  55.1842772  25.1668962  61.3948368  54.9388813  24.2631292  61.5928578
  55.3538686  25.1686113  60.4527846  54.4538419  20.8997320  58.8934530
  53.7607664  20.9741675  58.2374566  54.2090171  20.1357664  59.4156046
  63.1252076  12.4592921  66.2974020  63.4053829  11.7916110  66.9234447
  63.9102683  12.6522017  65.7848684  60.9285544  31.6351915  57.8599047
  60.3559511  32.2542102  57.4069518  61.5018338  32.1851277  58.3938969
  64.1482804  31.9189065  58.9907629  65.0813477  31.8534627  59.1940504
  64.0606017  32.7545332  58.5322162  66.7770821  31.2354936  55.9511576
  66.6984452  30.9014799  56.8447334  67.5980487  31.7276704  55.9503049
  69.4749012  24.1016675  69.1587895  69.4425332  23.1632676  69.3447579
  70.0849635  24.1800712  68.4253720  61.3132343  22.9712728  55.2015099
  62.2591447  22.8418936  55.2703517  60.9346588  22.2327390  55.6784527
  67.2854227  14.6368734  65.1641991  67.0879048  14.3283822  66.0485323
  67.8953933  15.3630373  65.2939921  61.1971035  27.0230474  76.6615756
  62.1174045  27.2009073  76.8555803  61.1620618  26.0786520  76.5095455
  59.4975260  20.8962704  55.1369984  58.5906715  20.5995817  55.2132698
  59.7751241  20.5992523  54.2704271  50.4153200  22.2169068  65.5869031
  50.0955984  21.3634376  65.2943405  49.8686628  22.4317646  66.3426998
  54.1933108  24.9331509  69.3038537  54.4119117  25.8648617  69.3226571
  54.6058882  24.5739483  70.0893341  61.1137325  15.4399594  61.2914226
  60.3038054  15.0946679  61.6669472  61.8021742  15.1307138  61.8801837
  63.0427874  14.5177641  62.9138522  63.5958912  14.9373094  63.5728545
  63.2797960  13.5913389  62.9561478  58.2674044  17.7549640  55.2781964
  59.1293208  18.0804538  55.5377781  58.4524389  16.9681136  54.7655029
  50.2841460  25.8371979  67.5562152  49.5904932  25.4225932  67.0432107
  51.0314451  25.8792516  66.9595571  66.4206681  16.6278166  62.4217187
  65.8405350  17.2862970  62.0395239  66.1542614  15.8055511  62.0104604
  64.8710247  16.0283224  64.6238507  65.3710026  16.1399758  63.8152826
  65.5145855  15.7244277  65.2639315  58.9292243  23.9361853  77.5106348
  58.4459325  24.7362214  77.7170237  59.0153182  23.9469798  76.5573792
  52.1978203  25.7690233  65.4328167  52.1748891  25.8677920  64.4810050
  52.5078839  26.6155384  65.7545333  54.8565581  27.8266388  69.5474782
  55.8108834  27.7950330  69.4804713  54.6578104  27.3657012  70.3625008
  55.4464963  26.3967504  72.1145579  56.2657852  26.8911583  72.1380417
  55.7201770  25.4799472  72.0863147  65.2031559  18.7878257  61.4773535
  64.3157414  19.0727907  61.2593730  65.6185548  18.6272020  60.6300812
  68.5546095  18.8124777  65.1927874  69.3306485  19.3021230  65.4652491
  67.8294229  19.2382832  65.6499744  53.2115809  33.3686008  66.5644979
  53.0770277  32.6086409  65.9982978  52.7947872  34.0926908  66.0973768
  64.3474772  28.5522931  55.5721555  65.0510622  28.7572934  56.1879210
  63.6237421  29.1199693  55.8370638  65.1772583  24.3032792  61.6923825
  65.1207784  24.7601344  60.8531457  65.7300925  23.5423477  61.5146668
  68.9877389  20.0922524  62.5173944  68.7314323  19.6919160  63.3482152
  68.3630257  20.8066318  62.3924084  73.2989726  22.8318598  65.0245236
  72.7389284  22.9011787  65.7976798  72.6933230  22.6559582  64.3044732
  56.3684935  34.2655325  66.7763422  56.2517319  35.2100757  66.6742112
  55.5477381  33.9628886  67.1649221  66.2561470  28.9905460  57.6220015
  67.0907074  28.5586659  57.4397490  66.0945813  28.8187474  58.5496909
  65.9107362  25.4937574  58.9876354  65.8556166  25.3281845  58.0464798
  65.2853417  26.2013607  59.1438544  50.6999877  20.7305638  72.8137776
  51.3458741  20.2204592  73.3025002  50.4917028  21.4674320  73.3881202
  59.2203487  14.9945683  58.5661673  59.2082157  15.9387523  58.7229943
  60.1126909  14.8115828  58.2721134  57.3939449  34.9183587  69.9919351
  58.2966696  34.9507197  70.3085846  57.1676819  33.9884038  70.0065686
  59.1493051  33.6714573  66.6529429  58.1988682  33.6716435  66.5393801
  59.4525537  32.9247308  66.1365464  63.0355607  11.5888459  62.8207609
  62.2688003  11.0346946  62.9664292  63.4466312  11.6610328  63.6821761
  55.0397368  17.8773255  76.9112791  55.9028829  17.5210060  77.1216115
  54.4662779  17.5387150  77.5988195  74.8845745  39.5075111  67.7175192
  75.5224155  39.3881859  67.0138532  74.7666588  40.4555955  67.7763144
  71.6935451  39.4602540  67.6536716  71.3553963  39.3443604  66.7657251
  72.5625219  39.0593705  67.6337722  67.5522267  41.3138016  63.6433607
  66.9887132  41.2227953  62.8749895  67.4374662  40.4937920  64.1236100
  65.0986699  42.8089208  66.4817828  65.8907991  42.4680032  66.0664127
  65.3383349  42.9184183  67.4019981  73.1321826  44.9808984  58.9548072
  72.4809805  45.5663064  58.5682086  73.9266188  45.5115179  59.0143110
  67.0577453  42.0698121  59.3535206  67.8308329  41.5227108  59.2148082
  67.4102852  42.9342370  59.5649668  69.8218702  40.7751352  69.1503465
  70.4182274  40.5507374  68.4360428  69.8793674  40.0336097  69.7528913
  69.3943731  38.2290787  56.9853656  69.6469251  37.7072308  56.2237119
  68.4568290  38.0656932  57.0880340  74.4387013  37.2326565  64.7928400
  75.2250103  36.8145989  64.4418817  74.7025718  38.1372658  64.9610048
  74.6097091  42.6699416  59.4917056  73.9742924  42.7434042  60.2037961
  74.2794497  43.2593014  58.8136136  69.1140019  40.1318893  59.1878031
  68.9976277  39.4563796  59.8559116  69.2242279  39.6451267  58.3710184
  71.4571560  39.5929040  62.8924721  71.0929767  39.0659661  63.6037642
  72.3138676  39.2027509  62.7191206  71.0977047  34.6218940  57.8886069
  71.2651450  35.4899176  58.2556540  70.9074216  34.7846221  56.9647358
  73.8552380  43.0835919  69.5551899  73.5553103  43.9860957  69.4467707
  73.5103440  42.8168102  70.4073052  67.3064862  39.5349715  65.5888604
  66.3815358  39.4025930  65.7966296  67.5549275  40.3143935  66.0858546
  77.2549524  35.6018459  67.2349337  76.3466401  35.5333867  66.9408098
  77.2037120  36.0790404  68.0631162  71.0766268  37.0776597  58.8732736
  70.9565893  37.5233648  59.7118216  70.3818856  37.4261915  58.3146274
  64.6673673  39.1782989  66.4232393  64.7966054  39.4317468  67.3371805
  63.9871124  39.7710697  66.1037048  68.8373160  49.8480239  62.5222867
  68.7597190  50.7988064  62.6011348  68.2334804  49.5026111  63.1797793
  76.7751334  37.5498070  59.7013070  77.6869190  37.7825457  59.5260768
  76.2660981  38.1335115  59.1388149  69.5836762  39.8293558  74.7402201
  70.3251447  40.3678602  74.4637025  68.8773748  40.4559847  74.8973753
  71.4123172  36.9095305  70.7107920  72.2584367  37.3334719  70.8542569
  71.3521810  36.2528929  71.4046483  75.3820916  42.5323889  67.0926651
  74.7529779  42.6969603  66.3902719  74.9946579  42.9465498  67.8637615
  76.5161080  41.1138286  71.0466359  76.7277975  41.7570046  70.3700740
  76.4690828  40.2800602  70.5788289  74.1187309  33.7256106  67.9502931
  73.2571788  34.0237360  68.2419668  74.1449744  33.9426505  67.0183964
  70.9348878  42.2698297  64.3576737  71.3987224  42.5486000  63.5681359
  70.6705676  41.3681742  64.1749827  67.8272959  41.8169778  67.2956500
  68.3974317  42.2457047  66.6573984  68.4181071  41.5352363  67.9940685
  69.8717764  38.3921449  61.1666302  70.5741808  38.8442493  61.6340228
  69.5398393  37.7505268  61.7946195  68.3198126  36.9833206  75.5417511
  67.6896787  37.6649487  75.7752908  68.2134214  36.8716288  74.5970649
  63.6143098  36.6505002  66.4683435  62.8242152  36.9062531  65.9923546
  64.1054346  37.4653340  66.5735476  65.5657844  37.0149581  63.4266912
  64.7689007  37.1268275  63.9450408  65.3383436  37.3536233  62.5607802
  61.8980801  36.9035492  68.8998426  62.1488840  37.7882502  69.1656002
  62.4340350  36.7240094  68.1273518  71.1111529  45.2062392  61.2428407
  70.9757204  46.0513928  61.6713255  71.6521342  45.4081670  60.4794341
  64.5640926  42.7237830  61.8156332  65.0765447  43.5181080  61.9661897
  65.2163639  42.0264120  61.7489933  66.3735811  45.8403586  63.8979085
  66.5502439  46.7621551  63.7100069  67.1692645  45.5262005  64.3273465
  65.6588168  37.8868218  73.7741248  65.5441683  36.9853475  74.0748347
  64.8032685  38.1331915  73.4226065  67.4967127  47.3581760  69.8989427
  68.0474552  47.2298823  69.1266421  66.6578603  47.6576649  69.5484320
  62.5289843  41.0526484  62.5915903  63.3665065  41.4623493  62.3749610
  62.7068111  40.1125926  62.5616096  74.4254275  38.7201565  58.2799735
  73.9100899  39.4906170  58.5188123  74.1531584  38.0466701  58.9032797
  72.0101386  33.5651266  63.3384974  71.1542983  33.1758116  63.1590613
  72.4228338  33.6443227  62.4784759  73.5400533  31.0997609  67.7376534
  73.0365329  31.0627744  66.9244339  73.8331140  32.0090352  67.7973190
  69.7843419  31.1836339  66.7442715  70.6496416  30.9879147  66.3848605
  69.8520928  30.9546690  67.6712072  74.2140579  36.5928657  60.1059517
  73.9090714  36.9074806  60.9569660  75.1671021  36.6710077  60.1486850
  72.6587010  42.7518880  61.7552471  72.1308372  42.0171640  61.4425708
  72.1574513  43.5293557  61.5092439  77.6379856  40.9467901  66.8719517
  76.9803531  41.6367162  66.9599646  78.4420256  41.3364333  67.2153503
  67.3905738  33.4138547  64.1159082  67.9649490  33.1913728  63.3832275
  67.9776720  33.4827241  64.8687683  76.4485315  39.3012274  64.9223459
  76.9617197  39.9342265  65.4245168  77.0986539  38.7013469  64.5566819
  67.7175325  35.4443008  58.1354967  66.8812637  35.7817694  58.4564242
  67.5780095  35.3091987  57.1982104  69.6928406  30.2879796  62.8434152
  69.0392818  29.9728813  62.2190766  69.6508880  29.6655536  63.5693975
  70.8039611  40.5699091  54.7587444  69.8966672  40.3388344  54.9578593
  71.3010643  39.7736710  54.9461425  73.7107689  49.2796598  57.6784130
  73.0369388  49.5828295  58.2869088  74.0973511  50.0825678  57.3289587
  72.9266146  36.7761729  67.1681799  72.0088707  36.9976676  67.0103487
  73.3426290  36.8508040  66.3093507  73.7101194  38.1753145  62.2984479
  74.4573013  38.6874542  61.9891602  73.9792783  37.8537197  63.1588873
  71.9827844  40.6711685  59.2811434  71.0739063  40.3870718  59.3783904
  72.0122928  41.0910764  58.4214741  77.2147111  44.2818275  63.0502601
  76.7609438  43.4409185  63.1067792  76.5841078  44.9179673  63.3877381
  76.1580031  35.2110261  64.2803269  75.4202788  34.6987647  64.6113511
  76.4106804  34.7710643  63.4686546  75.6580051  46.1194772  63.9852419
  75.9503025  46.6799829  63.2664785  76.1678671  46.4123333  64.7405579
  76.2591658  27.9886513  64.8745038  76.5650535  27.1283876  64.5870953
  76.9844263  28.5804133  64.6744032  62.5516014  38.3917200  63.2626636
  62.3540414  37.7986560  62.5377703  61.9962678  38.0869410  63.9802575
  70.5312738  38.2840306  65.3821229  70.5861348  37.3314142  65.3063706
  69.7203940  38.4399745  65.8662528  71.6803932  42.2120429  56.6199512
  71.2423362  41.4956288  56.1605150  72.4214373  42.4396544  56.0584604
  68.4705098  36.9017366  63.1411608  67.6572963  37.2011536  63.5476800
  68.9664092  36.5073055  63.8586090  70.6213676  46.8975123  65.0745873
  70.5789855  47.1235969  64.1454405  71.5376375  46.6638497  65.2231674
  74.0679310  37.3659190  71.9726502  74.4228697  37.5930663  72.8320968
  74.7151441  37.6977567  71.3503757  67.9619173  34.4735721  68.7572843
  68.6018552  34.3324480  68.0595806  67.1296703  34.1870235  68.3811445
  68.7379477  43.7738152  64.8707835  69.5320075  43.2788472  64.6690410
  68.0271169  43.2456015  64.5075541  65.0462240  37.9181234  60.9467588
  64.1159828  37.8565689  61.1637550  65.1419712  37.3957186  60.1504229
  64.9647789  34.4436046  63.5345830  65.2254606  35.3581380  63.4254990
  65.7864961  33.9760489  63.6842443  66.4372714  35.8573804  70.7044654
  67.1095768  35.6491166  70.0557303  65.6102501  35.6595890  70.2649887
  72.5162421  40.3216509  70.7807135  73.4454481  40.4727669  70.6076102
  72.0953451  40.4100530  69.9255781  71.3150753  44.3467174  68.5505672
  71.1761838  43.9785958  69.4231611  70.5265349  44.8614813  68.3789630
  71.9098905  49.4476270  59.8931209  72.0850660  48.9764313  60.7076832
  71.2231693  50.0742036  60.1212470  72.8655968  43.7248776  65.9394510
  72.5305800  43.6849546  66.8352160  72.3659913  43.0593492  65.4664921
  66.8400212  39.1316406  71.4647091  66.7020010  38.3996645  72.0658630
  67.7505135  39.0425307  71.1831279  75.8015159  41.0704811  56.2131570
  75.1844330  40.3451639  56.1164623  75.3331648  41.8314171  55.8698644
  69.4682512  38.8436366  70.9530771  70.1782131  38.2029558  70.9117390
  69.4251821  39.0949261  71.8756952  68.1811446  35.8301584  72.7726411
  67.6448803  35.3792322  73.4248007  67.5928155  35.9647493  72.0296875
  66.4759990  52.5965633  66.6671069  66.7156588  53.2284157  67.3450088
  65.6329186  52.2453673  66.9536428  67.5913705  35.2890235  55.3352874
  66.7143172  35.1679036  54.9715121  68.0671458  34.4976313  55.0831763
  59.1115845  40.0767395  65.4294381  59.7986885  39.7629125  64.8415397
  58.9563974  40.9808759  65.1561633  63.9150568  34.9657591  69.8579405
  63.8308756  34.3583261  69.1229815  63.0933274  35.4566610  69.8588901
  70.7777631  47.6416525  62.5815395  69.9945153  48.1838206  62.6753619
  71.4770377  48.1590505  62.9809636  74.0874281  33.4511155  65.2249600
  74.5842981  32.6981117  64.9050670  73.3161263  33.4875472  64.6592809
  75.1704062  42.2082842  62.7988023  74.2360341  42.3284305  62.6292728
  75.3480731  41.3055309  62.5348033  70.6709250  35.5928538  64.9521285
  70.3007038  35.0399578  65.6402190  71.1668343  34.9886671  64.3996285
  76.6252845  44.3943983  60.3324210  76.9012688  44.2800577  61.2418084
  75.7557343  43.9961468  60.2936383  76.2999735  38.6070640  69.8728853
  75.6471185  38.8546548  69.2181306  76.6780115  37.7934779  69.5391330
  73.2606909  48.6430334  63.9757023  73.4429303  47.8251989  64.4384776
  74.0839895  48.8598026  63.5381913  73.5949074  47.5698519  61.2372072
  74.1236841  47.0590973  60.6242234  73.8577294  47.2541049  62.1017605
  64.0966167  45.5862388  68.9807405  64.6819604  44.8406076  69.1135310
  63.8991005  45.8966345  69.8644069  66.9504822  48.6213635  63.9969848
  66.2815197  49.1059763  63.5133888  66.8117692  48.8682856  64.9113226
  58.6883822  38.1567988  67.7011848  58.7267921  37.6231579  68.4948967
  58.1824114  37.6303194  67.0822826  66.0674584  33.0032529  71.1974391
  66.1315910  33.8647360  70.7851788  66.0041704  32.3906530  70.4646749
  65.5426856  35.0755661  74.8447425  66.1698895  34.6932739  75.4584949
  64.6854775  34.8569863  75.2103118  62.3192399  36.8832090  60.7765780
  62.6145840  35.9742769  60.7232834  61.4180435  36.8619830  60.4546782
  74.2278478  48.6039354  67.5816188  74.1029617  47.8029094  67.0727134
  74.8857569  49.0985548  67.0930158  65.8486646  34.9588087  66.7593328
  65.1273232  35.5724055  66.6200802  66.6379902  35.4945852  66.6809974
  68.6512960  32.2942513  73.0333980  69.1747361  32.5404810  73.7960290
  68.4325293  33.1262548  72.6137118  64.0480241  34.5646188  60.9005105
  63.7192947  33.6843567  60.7180211  64.4019611  34.5093857  61.7881494
  73.2959820  46.2001091  65.4100091  73.1484782  45.2717798  65.5907661
  74.1213313  46.2221181  64.9257166  67.1622064  34.8519158  61.2680583
  67.5018136  35.3805079  60.5459191  67.6094184  35.1899564  62.0439149
  76.8993941  47.0229649  66.4964963  77.8240489  46.8172511  66.3589414
  76.7309245  46.7746051  67.4054305  69.8565505  33.2356209  70.7183651
  69.5162325  32.4364022  71.1204331  69.1504511  33.5357919  70.1460484
  70.5081977  30.3205521  69.1710974  71.3308046  29.8465999  69.0489864
  70.7520040  31.0996005  69.6709660  69.1490211  33.3493779  59.4673875
  69.8698574  33.7275032  58.9637592  68.5255515  34.0682656  59.5708853
  73.2921334  34.0538928  60.4032208  73.5084948  34.9363566  60.1021036
  72.8115401  33.6625142  59.6737850  68.0320555  37.0124642  66.9802952
  67.8865136  37.3264945  67.8727234  67.5545759  37.6309542  66.4273851
  69.8916938  34.0027190  67.0283842  69.8778507  33.1068283  66.6916140
  70.6089366  34.0097853  67.6622128  71.7443069  34.4364530  69.0736969
  71.4860847  35.3581600  69.0721300  71.2128109  34.0394964  69.7637434
  76.6889258  47.5415317  61.8527055  76.8626135  46.9761739  61.1000907
  77.1818149  48.3416212  61.6706545  62.5066217  39.5529986  69.9190614
  61.9619686  40.3289794  70.0510888  63.3845567  39.9000790  69.7609735
  69.2953834  32.8841570  62.2971412  69.4169745  31.9558216  62.4962300
  69.0055876  32.8980256  61.3849728  72.1645024  30.5696480  65.4338132
  72.1866721  30.6335813  64.4790111  72.5813084  29.7300989  65.6278638
  77.6764430  46.8582081  58.9523953  78.3715335  47.4788774  59.1711268
  78.0187580  46.0077433  59.2276331  63.2932239  38.6799882  72.8120770
  62.5513975  38.8282518  73.3985401  62.9724984  38.9408148  71.9487520
  71.2596514  50.3753770  64.8406537  70.8201504  49.8830149  65.5339394
  72.0104631  49.8326738  64.5998612  63.7388853  46.5665311  64.8431165
  64.5646873  46.2669083  64.4629809  63.3882905  45.7972933  65.2920954
  68.7070386  45.9191779  66.9128839  68.0850395  45.2562484  66.6131067
  69.3775253  45.9452911  66.2302486  61.9397458  44.4851637  65.8020099
  61.1029366  44.0573812  65.6204100  61.9121103  44.6784081  66.7390890
  68.2683893  44.4695703  60.3887299  68.4172013  45.1531167  59.7353972
  69.0750337  44.4500793  60.9036755  71.0094202  35.1504940  73.2607703
  70.1397511  35.4438506  72.9890292  71.2453682  35.7345385  73.9814967
  66.0236526  40.4960880  61.3948368  65.7782568  39.5923210  61.5928578
  66.1932441  40.4978031  60.4527846  65.2932174  36.2289238  58.8934530
  64.6001419  36.3033593  58.2374566  65.0483925  35.4649581  59.4156046
  73.9645830  27.7884839  66.2974020  74.2447584  27.1208028  66.9234447
  74.7496437  27.9813935  65.7848684  71.7679299  46.9643833  57.8599047
  71.1953266  47.5834020  57.4069518  72.3412092  47.5143195  58.3938969
  74.9876558  47.2480983  58.9907629  75.9207232  47.1826545  59.1940504
  74.8999771  48.0837250  58.5322162  77.6164575  46.5646853  55.9511576
  77.5378207  46.2306717  56.8447334  78.4374242  47.0568621  55.9503049
  72.1526097  38.3004646  55.2015099  73.0985202  38.1710854  55.2703517
  71.7740342  37.5619308  55.6784527  70.3369014  36.2254622  55.1369984
  69.4300470  35.9287735  55.2132698  70.6144995  35.9284440  54.2704271
  61.2546955  37.5460986  65.5869031  60.9349739  36.6926294  65.2943405
  60.7080383  37.7609564  66.3426998  65.0326862  40.2623427  69.3038537
  65.2512872  41.1940534  69.3226571  65.4452636  39.9031401  70.0893341
  71.9531080  30.7691512  61.2914226  71.1431808  30.4238597  61.6669472
  72.6415497  30.4599056  61.8801837  73.8821628  29.8469559  62.9138522
  74.4352667  30.2665012  63.5728545  74.1191715  28.9205307  62.9561478
  69.1067799  33.0841557  55.2781964  69.9686963  33.4096456  55.5377781
  69.2918143  32.2973053  54.7655029  61.1235215  41.1663897  67.5562152
  60.4298686  40.7517850  67.0432107  61.8708206  41.2084434  66.9595571
  77.2600435  31.9570084  62.4217187  76.6799104  32.6154888  62.0395239
  76.9936368  31.1347428  62.0104604  75.7104002  31.3575142  64.6238507
  76.2103780  31.4691676  63.8152826  76.3539610  31.0536194  65.2639315
  63.0371957  41.0982151  65.4328167  63.0142645  41.1969838  64.4810050
  63.3472594  41.9447302  65.7545333  65.6959335  43.1558306  69.5474782
  66.6502589  43.1242248  69.4804713  65.4971859  42.6948930  70.3625008
  66.2858717  41.7259422  72.1145579  67.1051606  42.2203501  72.1380417
  66.5595525  40.8091390  72.0863147  76.0425313  34.1170174  61.4773535
  75.1551168  34.4019825  61.2593730  76.4579302  33.9563938  60.6300812
  64.0509564  48.6977925  66.5644979  63.9164032  47.9378326  65.9982978
  63.6341626  49.4218825  66.0973768  75.1868527  43.8814849  55.5721555
  75.8904377  44.0864851  56.1879210  74.4631176  44.4491611  55.8370638
  76.0166337  39.6324710  61.6923825  75.9601539  40.0893262  60.8531457
  76.5694680  38.8715395  61.5146668  67.2078690  49.5947242  66.7763422
  67.0911074  50.5392675  66.6742112  66.3871136  49.2920804  67.1649221
  77.0955224  44.3197378  57.6220015  77.9300828  43.8878577  57.4397490
  76.9339567  44.1479392  58.5496909  76.7501116  40.8229491  58.9876354
  76.6949920  40.6573763  58.0464798  76.1247172  41.5305524  59.1438544
  61.5393631  36.0597556  72.8137776  62.1852495  35.5496510  73.3025002
  61.3310783  36.7966237  73.3881202  70.0597242  30.3237600  58.5661673
  70.0475912  31.2679440  58.7229943  70.9520664  30.1407746  58.2721134
  69.9886806  49.0006491  66.6529429  69.0382437  49.0008352  66.5393801
  70.2919292  48.2539225  66.1365464  73.8749361  26.9180377  62.8207609
  73.1081757  26.3638864  62.9664292  74.2860066  26.9902246  63.6821761
  65.8791122  33.2065173  76.9112791  66.7422584  32.8501978  77.1216115
  65.3056533  32.8679068  77.5988195  76.4051598  52.3441499  63.4266912
  75.6082762  52.4560193  63.9450408  76.1777190  52.6828151  62.5607802
  73.3683598  56.3818402  62.5915903  74.2058820  56.7915410  62.3749610
  73.5461865  55.4417844  62.5616096  73.3909769  53.7209117  63.2626636
  73.1934169  53.1278478  62.5377703  72.8356433  53.4161327  63.9802575
  75.8855995  53.2473151  60.9467588  74.9553583  53.1857607  61.1637550
  75.9813467  52.7249104  60.1504229  75.8041544  49.7727964  63.5345830
  76.0648361  50.6873297  63.4254990  76.6258716  49.3052407  63.6842443
  69.9509600  55.4059312  65.4294381  70.6380640  55.0921043  64.8415397
  69.7957729  56.3100677  65.1561633  73.1586154  52.2124008  60.7765780
  73.4539595  51.3034686  60.7232834  72.2574189  52.1911747  60.4546782
  74.8873995  49.8938106  60.9005105  74.5586701  49.0135485  60.7180211
  75.2413366  49.8385774  61.7881494  78.0015818  50.1811075  61.2680583
  78.3411891  50.7096997  60.5459191  78.4487939  50.5191482  62.0439149
  76.8630281  55.8252798  61.3948368  76.6176322  54.9215128  61.5928578
  77.0326195  55.8269948  60.4527846  76.1325928  51.5581155  58.8934530
  75.4395173  51.6325510  58.2374566  75.8877680  50.7941499  59.4156046
  72.0940709  52.8752903  65.5869031  71.7743493  52.0218211  65.2943405
  71.5474137  53.0901481  66.3426998  54.2592946   4.4859413  53.2063134
  55.0514237   4.1450237  52.7909434  54.4989596   4.5954388  54.1265288
  62.2928072   6.6579189  45.6793379  61.6416052   7.2433269  45.2927393
  63.0872435   7.1885384  45.7388416  58.0568742   5.0744708  59.2847412
  57.7658608   5.9790339  59.1694079  58.6925726   5.1161236  59.9991482
  57.9979407  11.5250444  49.2468174  57.9203437  12.4758269  49.3256654
  57.3941050  11.1796316  49.9043100  60.2717776   6.8832597  47.9673714
  60.1363451   7.7284133  48.3958561  60.8127588   7.0851875  47.2039647
  53.7247173   4.4008035  48.5401639  54.2371694   5.1951285  48.6907203
  54.3769886   3.7034325  48.4735240  55.5342058   7.5173791  50.6224392
  55.7108686   8.4391756  50.4345376  56.3298891   7.2032210  51.0518772
  61.8986252   7.5056163  62.0974056  61.4550106   6.7192542  61.7794960
  62.5603466   7.6935314  61.4317946  56.6573373   9.0351965  56.6234734
  57.2080798   8.9069028  55.8511728  55.8184849   9.3346854  56.2729627
  63.9967490   7.7858963  60.1255457  63.9785966   8.6067844  59.6335726
  64.9187410   7.6613039  60.3505598  62.8713936  10.9566803  44.4029436
  62.1975635  11.2598499  45.0114394  63.2579758  11.7595883  44.0534894
  64.8186297   7.7964977  50.7097726  65.1109272   8.3570034  49.9910092
  65.3284918   8.0893538  51.4650885  59.7819923   8.5745328  51.7991179
  59.7396101   8.8006174  50.8699711  60.6982621   8.3408702  51.9476980
  62.7180568   7.8326452  55.9465510  62.7717590   8.4017389  56.7143226
  61.8495349   8.0028337  55.5819547  60.4756999   6.0237379  55.2750979
  60.3368085   5.6556163  56.1476917  59.6871596   6.5385018  55.1034937
  61.0705151  11.1246475  46.6176516  61.2456907  10.6534518  47.4322138
  60.3837939  11.7512241  46.8457776  55.6366237  14.2735838  53.3916376
  55.8762835  14.9054362  54.0695394  54.7935433  13.9223878  53.6781735
  60.1494098  10.0814960  55.7957880  60.0764270  10.8869932  56.3077184
  59.7071492  10.2806926  54.9705901  59.9383878   9.3186730  49.3060701
  59.1551400   9.8608411  49.3998926  60.6376623   9.8360710  49.7054943
  62.6092782   9.9801794  57.9516038  63.3220754  10.6149259  57.8791940
  62.1182811  10.0765660  57.1356040  57.6604696   7.7296238  58.7721609
  58.3614155   8.3632721  58.9251004  57.1899811   8.0710969  58.0117249
  62.4213155  10.3200538  50.7002330  62.6035550   9.5022194  51.1630082
  63.2446141  10.5368231  50.2627220  62.7555321   9.2468724  47.9617378
  63.2843087   8.7361178  47.3487541  63.0183540   8.9311254  48.8262911
  53.2572414   7.2632593  55.7052712  53.8425850   6.5176281  55.8380616
  53.0597252   7.5736550  56.5889376  56.1111069  10.2983840  50.7215154
  55.4421444  10.7829968  50.2379194  55.9723939  10.5453061  51.6358533
  60.2516337  12.3327584  57.3197813  60.8034645  12.4959205  58.0846898
  60.5922531  12.9232022  56.6477838  63.3884725  10.2809559  54.3061495
  63.2635864   9.4799299  53.7972440  64.0463816  10.7755753  53.8175465
  62.4566066   7.8771296  52.1345397  62.3091029   6.9488003  52.3152967
  63.2819560   7.8991386  51.6502472  66.0600188   8.6999854  53.2210270
  66.9846736   8.4942716  53.0834721  65.8915492   8.4516256  54.1299611
  65.8495504   9.2185522  48.5772361  66.0232382   8.6531944  47.8246214
  66.3424396  10.0186417  48.3951851  60.3982149   9.8986065  59.3346467
  60.7069275   9.6535212  60.2069167  61.1957631  10.1032704  58.8465337
  60.4202761  12.0523975  51.5651844  59.9807751  11.5600354  52.2584700
  61.1710878  11.5096943  51.3243919  52.8995100   8.2435516  51.5676472
  53.7253120   7.9439288  51.1875115  52.5489152   7.4743138  52.0166260
  57.8676633   7.5961984  53.6374145  57.2456642   6.9332689  53.3376373
  58.5381500   7.6223116  52.9547793  51.1003705   6.1621842  52.5265405
  50.2635613   5.7344017  52.3449407  51.0727350   6.3554286  53.4636196
  57.4290140   6.1465907  47.1132606  57.5778260   6.8301372  46.4599279
  58.2356583   6.1270998  47.6282062  60.9285545   8.6414038  44.5844353
  60.3559512   9.2604225  44.1314825  61.5018339   9.1913400  45.1184275
  64.1482805   8.9251188  45.7152936  65.0813478   8.8596750  45.9185811
  64.0606018   9.7607455  45.2567468  66.7770822   8.2417058  42.6756883
  66.6984453   7.9076922  43.5692641  67.5980489   8.7338826  42.6748355
  50.2841461   2.8434102  54.2807459  49.5904933   2.4288055  53.7677413
  51.0314452   2.8854638  53.6840878  52.1978204   2.7752356  52.1573474
  52.1748892   2.8740043  51.2055357  52.5078840   3.6217507  52.4790640
  54.8565582   4.8328511  56.2720088  55.8108835   4.8012453  56.2050020
  54.6578105   4.3719134  57.0870314  53.2115811  10.3748130  53.2890286
  53.0770279   9.6148531  52.7228284  52.7947873  11.0989030  52.8219075
  56.3684936  11.2717447  53.5008729  56.2517321  12.2162880  53.3987419
  55.5477383  10.9691009  53.8894528  57.3939451  11.9245709  56.7164657
  58.2966697  11.9569319  57.0331152  57.1676821  10.9946160  56.7310993
  59.1493053  10.6776696  53.3774736  58.1988684  10.6778557  53.2639108
  59.4525539   9.9309430  52.8610770  74.8845746  16.5137234  54.4420498
  75.5224156  16.3943981  53.7383838  74.7666589  17.4618078  54.5008450
  71.6935452  16.4664662  54.3782023  71.3553964  16.3505727  53.4902558
  72.5625221  16.0655827  54.3583029  67.5522268  18.3200139  50.3678914
  66.9887133  18.2290076  49.5995202  67.4374663  17.5000043  50.8481406
  72.1755235  17.6199514  60.3368228  72.1643876  17.2252312  59.4648732
  72.3375875  16.8865587  60.9302000  65.0986700  19.8151330  53.2063134
  65.8907992  19.4742155  52.7909434  65.3383350  19.9246305  54.1265288
  73.1321827  21.9871106  45.6793379  72.4809807  22.5725187  45.2927393
  73.9266190  22.5177301  45.7388416  67.0577454  19.0760243  46.0780513
  67.8308330  18.5289231  45.9393389  67.4102853  19.9404493  46.2894975
  68.8962497  20.4036626  59.2847412  68.6052362  21.3082257  59.1694079
  69.5319481  20.4453153  59.9991482  69.8218703  17.7813474  55.8748772
  70.4182276  17.5569497  55.1605735  69.8793675  17.0398220  56.4774220
  69.3943732  15.2352910  43.7098963  69.6469252  14.7134431  42.9482426
  68.4568291  15.0719055  43.8125647  74.4387015  14.2388688  51.5173706
  75.2250104  13.8208111  51.1664123  74.7025719  15.1434780  51.6855355
  74.6097092  19.6761538  46.2162363  73.9742925  19.7496165  46.9283268
  74.2794498  20.2655137  45.5381442  69.1140021  17.1381016  45.9123338
  68.9976279  16.4625919  46.5804422  69.2242280  16.6513389  45.0955491
  71.4571561  16.5991163  49.6170027  71.0929769  16.0721784  50.3282949
  72.3138677  16.2089632  49.4436513  71.0977048  11.6281062  44.6131376
  71.2651451  12.4961299  44.9801847  70.9074217  11.7908344  43.6892665
  73.8552382  20.0898041  56.2797206  73.5553105  20.9923080  56.1713013
  73.5103441  19.8230224  57.1318359  67.3064863  16.5411838  52.3133911
  66.3815360  16.4088052  52.5211602  67.5549276  17.3206057  52.8103853
  77.2549525  12.6080581  53.9594643  76.3466403  12.5395990  53.6653404
  77.2037121  13.0852526  54.7876469  71.0766269  14.0838720  45.5978043
  70.9565894  14.5295771  46.4363523  70.3818858  14.4324038  45.0391581
  64.6673674  16.1845112  53.1477700  64.7966055  16.4379591  54.0617111
  63.9871125  16.7772820  52.8282355  68.8373161  26.8542362  49.2468174
  68.7597191  27.8050187  49.3256654  68.2334805  26.5088234  49.9043100
  71.3290391  14.0270227  61.9029541  70.5523725  14.5864147  61.8932405
  71.9680954  14.5127010  62.4244411  76.7751335  14.5560193  46.4258377
  77.6869192  14.7887580  46.2506074  76.2660983  15.1397237  45.8633455
  69.5836763  16.8355680  61.4647508  70.3251448  17.3740724  61.1882331
  68.8773749  17.4621969  61.6219060  75.0592103  18.9784821  60.0619669
  75.4675459  18.5367231  59.3174302  74.3369365  18.4037448  60.3153862
  71.4123173  13.9157428  57.4353226  72.2584368  14.3396841  57.5787875
  71.3521811  13.2591052  58.1291789  75.3820918  19.5386011  53.8171958
  74.7529780  19.7031726  53.1148026  74.9946580  19.9527621  54.5882922
  76.5161081  18.1200408  57.7711665  76.7277976  18.7632168  57.0946046
  76.4690830  17.2862725  57.3033595  74.1187310  10.7318229  54.6748238
  73.2571789  11.0299483  54.9664975  74.1449745  10.9488628  53.7429270
  70.9348880  19.2760420  51.0822043  71.3987225  19.5548123  50.2926666
  70.6705678  18.3743864  50.8995134  67.8272961  18.8231901  54.0201806
  68.3974318  19.2519169  53.3819291  68.4181073  18.5414486  54.7185992
  69.8717766  15.3983572  47.8911608  70.5741809  15.8504616  48.3585535
  69.5398394  14.7567391  48.5191501  68.3198127  13.9895329  62.2662818
  67.6896788  14.6711609  62.4998215  68.2134215  13.8778410  61.3215956
  63.6143100  13.6567125  53.1928742  62.8242154  13.9124653  52.7168852
  64.1054347  14.4715462  53.2980782  77.6306909  20.9972364  55.9434023
  78.4524353  20.5952551  55.6616704  77.6269312  20.8940598  56.8950139
  65.5657845  14.0211704  50.1512219  64.7689008  14.1330398  50.6695714
  65.3383437  14.3598356  49.2853109  71.3963513  20.5456407  58.0994733
  71.4607945  21.0076814  58.9352905  70.6874437  19.9153772  58.2277043
  61.8980803  13.9097615  55.6243733  62.1488841  14.7944625  55.8901309
  62.4340351  13.7302217  54.8518825  71.1111530  22.2124515  47.9673714
  70.9757205  23.0576050  48.3958561  71.6521343  22.4143792  47.2039647
  64.5640928  19.7299953  48.5401639  65.0765448  20.5243203  48.6907203
  65.2163641  19.0326243  48.4735240  66.3735812  22.8465709  50.6224392
  66.5502441  23.7683674  50.4345376  67.1692646  22.5324128  51.0518772
  65.6588169  14.8930341  60.4986555  65.5441684  13.9915598  60.7993654
  64.8032687  15.1394038  60.1471372  72.7380007  22.8348081  62.0974056
  72.2943861  22.0484460  61.7794960  73.3997220  23.0227232  61.4317946
  67.4967128  24.3643883  56.6234734  68.0474553  24.2360946  55.8511728
  66.6578604  24.6638772  56.2729627  74.8361245  23.1150881  60.1255457
  74.8179720  23.9359762  59.6335726  75.7581165  22.9904956  60.3505598
  71.2934299  20.6295010  60.9678965  71.8262636  19.8683299  60.7378273
  70.7648380  20.3368662  61.7103120  62.5289844  18.0588607  49.3161209
  63.3665066  18.4685615  49.0994917  62.7068112  17.1188049  49.2861403
  74.4254277  15.7263688  45.0045042  73.9100900  16.4968292  45.2433430
  74.1531585  15.0528824  45.6278104  72.0101388  10.5713388  50.0630280
  71.1542984  10.1820239  49.8835919  72.4228339  10.6505349  49.2030066
  74.2140580  13.5990780  46.8304823  73.9090715  13.9136929  47.6814966
  75.1671022  13.6772200  46.8732156  72.6587012  19.7581003  48.4797777
  72.1308373  19.0233763  48.1671015  72.1574514  20.5355679  48.2337746
  77.6379858  17.9530023  53.5964824  76.9803532  18.6429285  53.6844952
  78.4420257  18.3426455  53.9398810  67.3905739  10.4200669  50.8404389
  67.9649491  10.1975851  50.1077582  67.9776722  10.4889364  51.5932990
  76.4485316  16.3074396  51.6468765  76.9617198  16.9404388  52.1490475
  77.0986540  15.7075592  51.2812125  67.7175326  12.4505130  44.8600274
  66.8812639  12.7879817  45.1809549  67.5780096  12.3154110  43.9227411
  70.8039612  17.5761213  41.4832750  69.8966674  17.3450467  41.6823899
  71.3010644  16.7798832  41.6706732  73.7107691  26.2858720  44.4029436
  73.0369389  26.5890417  45.0114394  74.0973513  27.0887801  44.0534894
  72.9266147  13.7823852  53.8927106  72.0088709  14.0038799  53.7348794
  73.3426291  13.8570162  53.0338813  73.7101195  15.1815267  49.0229786
  74.4573014  15.6936665  48.7136908  73.9792785  14.8599320  49.8834180
  71.9827845  17.6773808  46.0056740  71.0739064  17.3932841  46.1029210
  72.0122929  18.0972887  45.1460047  77.2147113  21.2880398  49.7747908
  76.7609440  20.4471307  49.8313098  76.5841079  21.9241796  50.1122688
  76.1580032  12.2172384  51.0048575  75.4202789  11.7049770  51.3358818
  76.4106806  11.7772765  50.1931852  75.6580052  23.1256894  50.7097726
  75.9503026  23.6861951  49.9910092  76.1678672  23.4185455  51.4650885
  62.5516016  15.3979322  49.9871943  62.3540415  14.8048683  49.2623009
  61.9962680  15.0931532  50.7047881  70.5312739  15.2902429  52.1066536
  70.5861349  14.3376265  52.0309012  69.7203941  15.4461868  52.5907834
  71.6803933  19.2182552  43.3444819  71.2423363  18.5018411  42.8850456
  72.4214374  19.4458667  42.7829910  68.4705099  13.9079488  49.8656915
  67.6572965  14.2073659  50.2722107  68.9664093  13.5135177  50.5831397
  70.6213677  23.9037245  51.7991179  70.5789856  24.1298092  50.8699711
  71.5376376  23.6700620  51.9476980  74.0679311  14.3721313  58.6971809
  74.4228699  14.5992786  59.5566274  74.7151442  14.7039690  58.0749064
  67.9619174  11.4797844  55.4818150  68.6018553  11.3386603  54.7841113
  67.1296705  11.1932357  55.1056752  68.7379478  20.7800274  51.5953142
  69.5320076  20.2850595  51.3935717  68.0271170  20.2518137  51.2320848
  73.5574322  23.1618370  55.9465510  73.6111345  23.7309306  56.7143226
  72.6889104  23.3320255  55.5819547  65.0462241  14.9243356  47.6712895
  64.1159829  14.8627812  47.8882857  65.1419713  14.4019309  46.8749536
  64.9647790  11.4498169  50.2591136  65.2254608  12.3643502  50.1500297
  65.7864963  10.9822611  50.4087749  66.4372716  12.8635926  57.4289961
  67.1095769  12.6553288  56.7802610  65.6102502  12.6658012  56.9895193
  72.5162422  17.3278632  57.5052441  73.4454482  17.4789792  57.3321409
  72.0953452  17.4162653  56.6501088  71.3150754  21.3529296  55.2750979
  71.1761840  20.9848081  56.1476917  70.5265350  21.8676936  55.1034937
  71.9098906  26.4538393  46.6176516  72.0850662  25.9826436  47.4322138
  71.2231694  27.0804159  46.8457776  72.8655969  20.7310899  52.6639817
  72.5305802  20.6911669  53.5597467  72.3659915  20.0655615  52.1910227
  66.8400213  16.1378529  58.1892398  66.7020011  15.4058768  58.7903937
  67.7505136  16.0487429  57.9076586  75.8015161  18.0766933  42.9376877
  75.1844331  17.3513762  42.8409929  75.3331649  18.8376294  42.5943951
  69.4682514  15.8498488  57.6776078  70.1782132  15.2091681  57.6362696
  69.4251822  16.1011383  58.6002258  77.4569292  22.7865842  60.5982657
  77.3981838  22.1025062  59.9313240  77.8588811  23.5284832  60.1463283
  68.1811448  12.8363706  59.4971717  67.6448805  12.3854445  60.1493314
  67.5928156  12.9709615  58.7542182  66.4759991  29.6027756  53.3916376
  66.7156589  30.2346280  54.0695394  65.6329188  29.2515796  53.6781735
  67.5913707  12.2952358  42.0598181  66.7143173  12.1741158  41.6960428
  68.0671460  11.5038436  41.8077069  77.4586700  20.7505426  58.8296637
  76.5713478  20.4131347  58.9523035  78.0285251  20.0188457  59.0665402
  59.1115847  17.0829517  52.1539688  59.7986887  16.7691247  51.5660703
  58.9563975  17.9870882  51.8806939  63.9150569  11.9719714  56.5824712
  63.8308758  11.3645384  55.8475122  63.0933275  12.4628732  56.5834208
  70.9887853  25.4106878  55.7957880  70.9158024  26.2161850  56.3077184
  70.5465246  25.6098844  54.9705901  70.7777633  24.6478648  49.3060701
  69.9945154  25.1900328  49.3998926  71.4770378  25.1652628  49.7054943
  73.4486536  25.3093712  57.9516038  74.1614509  25.9441177  57.8791940
  72.9576565  25.4057578  57.1356040  75.1704063  19.2144965  49.5233330
  74.2360342  19.3346427  49.3538034  75.3480732  18.3117432  49.2593340
  70.6709251  12.5990661  51.6766591  70.3007039  12.0461701  52.3647497
  71.1668344  11.9948794  51.1241591  68.4998450  23.0588156  58.7721609
  69.2007910  23.6924638  58.9251004  68.0293565  23.4002887  58.0117249
  76.6252846  21.4006105  47.0569516  76.9012690  21.2862700  47.9663390
  75.7557345  21.0023590  47.0181689  76.2999736  15.6132763  56.5974160
  75.6471186  15.8608670  55.9426612  76.6780116  14.7996901  56.2636637
  73.2606910  25.6492456  50.7002330  73.4429304  24.8314112  51.1630082
  74.0839896  25.8660148  50.2627220  73.5949075  24.5760641  47.9617378
  74.1236842  24.0653096  47.3487541  73.8577295  24.2603171  48.8262911
  64.0966168  22.5924511  55.7052712  64.6819605  21.8468198  55.8380616
  63.8991007  22.9028467  56.5889376  66.9504823  25.6275758  50.7215154
  66.2815199  26.1121886  50.2379194  66.8117693  25.8744978  51.6358533
  58.6883823  15.1630111  54.4257155  58.7267922  14.6293701  55.2194273
  58.1824116  14.6365316  53.8068132  71.0910092  27.6619501  57.3197813
  71.6428400  27.8251123  58.0846898  71.4316285  28.2523939  56.6477838
  66.0674585  10.0094651  57.9219697  66.1315912  10.8709482  57.5097095
  66.0041705   9.3968653  57.1892056  65.5426858  12.0817784  61.5692732
  66.1698896  11.6994861  62.1830256  64.6854777  11.8631986  61.9348424
  75.9420966  22.4880759  63.1746467  76.4860870  23.1010717  62.6801422
  75.3607811  23.0460337  63.6913480  62.3192400  13.8894213  47.5011086
  62.6145841  12.9804891  47.4478140  61.4180436  13.8681952  47.1792089
  74.2278479  25.6101477  54.3061495  74.1029619  24.8091217  53.7972440
  74.8857570  26.1047670  53.8175465  65.8486647  11.9650210  53.4838635
  65.1273233  12.5786177  53.3446108  66.6379903  12.5007974  53.4055281
  76.2913388  23.4110497  55.9341045  75.3443723  23.2915848  55.8619372
  76.6396161  22.5232995  56.0167306  68.6512961   9.3004636  59.7579287
  69.1747363   9.5466933  60.5205596  68.4325294  10.1324671  59.3382424
  64.0480242  11.5708311  47.6250412  63.7192948  10.6905690  47.4425518
  64.4019613  11.5155979  48.5126801  73.2959821  23.2063213  52.1345397
  73.1484783  22.2779921  52.3152967  74.1213314  23.2283304  51.6502472
  67.1622065  11.8581280  47.9925889  67.5018138  12.3867202  47.2704498
  67.6094186  12.1961687  48.7684456  76.8993943  24.0291772  53.2210270
  77.8240490  23.8234633  53.0834721  76.7309246  23.7808173  54.1299611
  69.8565506  10.2418331  57.4428957  69.5162326   9.4426144  57.8449637
  69.1504512  10.5420042  56.8705791  69.1490212  10.3555902  46.1919182
  69.8698575  10.7337155  45.6882899  68.5255516  11.0744779  46.2954160
  73.2921335  11.0601051  47.1277514  73.5084950  11.9425689  46.8266343
  72.8115402  10.6687264  46.3983156  68.0320557  14.0186764  53.7048259
  67.8865137  14.3327067  54.5972541  67.5545760  14.6371665  53.1519158
  69.8916939  11.0089312  53.7529149  69.8778508  10.1130405  53.4161447
  70.6089368  11.0159976  54.3867435  71.7443070  11.4426652  55.7982276
  71.4860848  12.3643723  55.7966606  71.2128111  11.0457087  56.4882740
  76.6889259  24.5477439  48.5772361  76.8626136  23.9823862  47.8246214
  77.1818150  25.3478334  48.3951851  62.5066219  16.5592109  56.6435920
  61.9619687  17.3351917  56.7756195  63.3845569  16.9062913  56.4855042
  69.2953835   9.8903692  49.0216719  69.4169747   8.9620339  49.2207606
  69.0055878   9.9042378  48.1095034  77.6764431  23.8644204  45.6769260
  78.3715336  24.4850897  45.8956574  78.0187582  23.0139555  45.9521638
  63.2932241  15.6862005  59.5366077  62.5513977  15.8344640  60.1230707
  62.9724985  15.9470270  58.6732826  71.2375903  25.2277983  59.3346467
  71.5463030  24.9827130  60.2069167  72.0351385  25.4324622  58.8465337
  71.2596515  27.3815893  51.5651844  70.8201506  26.8892271  52.2584700
  72.0104632  26.8388860  51.3243919  63.7388854  23.5727434  51.5676472
  64.5646874  23.2731205  51.1875115  63.3882906  22.8035056  52.0166260
  68.7070387  22.9253902  53.6374145  68.0850397  22.2624607  53.3376373
  69.3775254  22.9515034  52.9547793  61.9397459  21.4913760  52.5265405
  61.1029368  21.0635934  52.3449407  61.9121105  21.6846203  53.4636196
  68.2683894  21.4757825  47.1132606  68.4172015  22.1593290  46.4599279
  69.0750338  21.4562915  47.6282062  71.0094203  12.1567062  59.9853010
  70.1397513  12.4500628  59.7135599  71.2453684  12.7407507  60.7060274
  66.0236527  17.5023003  48.1193675  65.7782569  16.5985333  48.3173885
  66.1932442  17.5040153  47.1773153  65.2932175  13.2351360  45.6179836
  64.6001420  13.3095715  44.9619872  65.0483927  12.4711704  46.1401353
  71.7679300  23.9705956  44.5844353  71.1953267  24.5896143  44.1314825
  72.3412094  24.5205317  45.1184275  74.9876560  24.2543106  45.7152936
  75.9207233  24.1888667  45.9185811  74.8999772  25.0899373  45.2567468
  77.6164576  23.5708976  42.6756883  77.5378208  23.2368840  43.5692641
  78.4374243  24.0630744  42.6748355  72.1526098  15.3066768  41.9260406
  73.0985203  15.1772976  41.9948824  71.7740343  14.5681430  42.4029834
  72.0364791  19.3584514  63.3861063  72.9567800  19.5363113  63.5801109
  72.0014374  18.4140560  63.2340762  70.3369016  13.2316745  41.8615291
  69.4300471  12.9349857  41.9378005  70.6144997  12.9346563  40.9949577
  61.2546956  14.5523108  52.3114337  60.9349740  13.6988416  52.0188711
  60.7080384  14.7671686  53.0672305  65.0326863  17.2685549  56.0283844
  65.2512873  18.2002657  56.0471878  65.4452637  16.9093524  56.8138648
  69.1067800  10.0903680  42.0027270  69.9686964  10.4158578  42.2623088
  69.2918144   9.3035176  41.4900336  61.1235216  18.1726020  54.2807459
  60.4298687  17.7579972  53.7677413  61.8708207  18.2146556  53.6840878
  69.7685999  16.2715894  64.2351654  69.2853081  17.0716254  64.4415544
  69.8546938  16.2823839  63.2819098  63.0371958  18.1044273  52.1573474
  63.0142647  18.2031961  51.2055357  63.3472595  18.9509424  52.4790640
  65.6959336  20.1620428  56.2720088  66.6502590  20.1304371  56.2050020
  65.4971860  19.7011052  57.0870314  66.2858718  18.7321544  58.8390886
  67.1051607  19.2265623  58.8625723  66.5595526  17.8153513  58.8108453
  64.0509565  25.7040048  53.2890286  63.9164033  24.9440449  52.7228284
  63.6341627  26.4280948  52.8219075  75.1868528  20.8876971  42.2966861
  75.8904378  21.0926974  42.9124517  74.4631177  21.4553733  42.5615945
  76.0166338  16.6386833  48.4169132  75.9601540  17.0955384  47.5776764
  76.5694681  15.8777517  48.2391974  67.2078691  26.6009365  53.5008729
  67.0911075  27.5454797  53.3987419  66.3871137  26.2982926  53.8894528
  77.0955225  21.3259501  44.3465321  77.9300829  20.8940699  44.1642796
  76.9339568  21.1541514  45.2742216  76.7501118  17.8291614  45.7121661
  76.6949921  17.6635885  44.7710105  76.1247173  18.5367647  45.8683850
  61.5393633  13.0659678  59.5383083  62.1852496  12.5558632  60.0270308
  61.3310784  13.8028360  60.1126508  68.2333205  27.2537627  56.7164657
  69.1360452  27.2861237  57.0331152  68.0070575  26.3238078  56.7310993
  69.9886807  26.0068613  53.3774736  69.0382438  26.0070475  53.2639108
  70.2919293  25.2601348  52.8610770  65.8791124  10.2127295  63.6358097
  66.7422585   9.8564100  63.8461422  65.3056534   9.8741190  64.3233501
  78.3916023  33.6492056  50.3678914  77.8280888  33.5581993  49.5995202
  78.2768418  32.8291961  50.8481406  75.9380454  35.1443248  53.2063134
  76.7301746  34.8034073  52.7909434  76.1777105  35.2538223  54.1265288
  78.1458618  31.8703756  52.3133911  77.2209114  31.7379970  52.5211602
  78.3943031  32.6497975  52.8103853  75.5067429  31.5137029  53.1477700
  75.6359810  31.7671508  54.0617111  74.8264880  32.1064737  52.8282355
  74.4536854  28.9859042  53.1928742  73.6635908  29.2416571  52.7168852
  74.9448102  29.8007380  53.2980782  76.4051600  29.3503622  50.1512219
  75.6082763  29.4622316  50.6695714  76.1777192  29.6890274  49.2853109
  72.7374557  29.2389533  55.6243733  72.9882596  30.1236543  55.8901309
  73.2734106  29.0594134  54.8518825  75.4034682  35.0591870  48.5401639
  75.9159203  35.8535121  48.6907203  76.0557395  34.3618161  48.4735240
  77.2129567  38.1757627  50.6224392  77.3896195  39.0975591  50.4345376
  78.0086400  37.8616046  51.0518772  76.4981923  30.2222258  60.4986555
  76.3835439  29.3207516  60.7993654  75.6426441  30.4685955  60.1471372
  73.3683599  33.3880525  49.3161209  74.2058821  33.7977533  49.0994917
  73.5461867  32.4479967  49.2861403  73.3909770  30.7271240  49.9871943
  73.1934170  30.1340601  49.2623009  72.8356434  30.4223450  50.7047881
  75.8855996  30.2535274  47.6712895  74.9553584  30.1919729  47.8882857
  75.9813468  29.7311227  46.8749536  75.8041545  26.7790087  50.2591136
  76.0648362  27.6935420  50.1500297  76.6258717  26.3114529  50.4087749
  77.2766470  28.1927844  57.4289961  77.9489524  27.9845206  56.7802610
  76.4496257  27.9949930  56.9895193  77.3153746  44.9319673  53.3916376
  77.5550344  45.5638197  54.0695394  76.4722942  44.5807713  53.6781735
  69.9509601  32.4121435  52.1539688  70.6380641  32.0983165  51.5660703
  69.7957730  33.3162800  51.8806939  74.7544323  27.3011632  56.5824712
  74.6702512  26.6937301  55.8475122  73.9327030  27.7920650  56.5834208
  74.9359923  37.9216428  55.7052712  75.5213359  37.1760116  55.8380616
  74.7384761  38.2320385  56.5889376  77.7898578  40.9567676  50.7215154
  77.1208953  41.4413803  50.2379194  77.6511447  41.2036896  51.6358533
  69.5277577  30.4922028  54.4257155  69.5661677  29.9585619  55.2194273
  69.0217870  29.9657234  53.8068132  76.9068340  25.3386569  57.9219697
  76.9709666  26.2001400  57.5097095  76.8435460  24.7260571  57.1892056
  76.3820612  27.4109702  61.5692732  77.0092651  27.0286779  62.1830256
  75.5248531  27.1923903  61.9348424  73.1586155  29.2186131  47.5011086
  73.4539596  28.3096809  47.4478140  72.2574191  29.1973870  47.1792089
  76.6880402  27.2942127  53.4838635  75.9666988  27.9078095  53.3446108
  77.4773658  27.8299892  53.4055281  74.8873996  26.9000228  47.6250412
  74.5586703  26.0197607  47.4425518  75.2413367  26.8447897  48.5126801
  78.0015820  27.1873198  47.9925889  78.3411892  27.7159119  47.2704498
  78.4487940  27.5253604  48.7684456  73.3459973  31.8884026  56.6435920
  72.8013441  32.6643834  56.7756195  74.2239323  32.2354831  56.4855042
  74.1325995  31.0153923  59.5366077  73.3907731  31.1636558  60.1230707
  73.8118739  31.2762188  58.6732826  74.5782609  38.9019351  51.5676472
  75.4040629  38.6023123  51.1875115  74.2276661  38.1326974  52.0166260
  72.7791214  36.8205678  52.5265405  71.9423122  36.3927852  52.3449407
  72.7514859  37.0138121  53.4636196  76.8630282  32.8314920  48.1193675
  76.6176324  31.9277250  48.3173885  77.0326196  32.8332071  47.1773153
  76.1325929  28.5643278  45.6179836  75.4395174  28.6387633  44.9619872
  75.8877681  27.8003622  46.1401353  72.0940710  29.8815026  52.3114337
  71.7743495  29.0280334  52.0188711  71.5474139  30.0963604  53.0672305
  75.8720618  32.5977467  56.0283844  76.0906628  33.5294575  56.0471878
  76.2846392  32.2385441  56.8138648  71.9628970  33.5017937  54.2807459
  71.2692442  33.0871890  53.7677413  72.7101961  33.5438474  53.6840878
  73.8765713  33.4336191  52.1573474  73.8536401  33.5323878  51.2055357
  74.1866349  34.2801342  52.4790640  76.5353091  35.4912346  56.2720088
  77.4896344  35.4596288  56.2050020  76.3365614  35.0302970  57.0870314
  77.1252473  34.0613462  58.8390886  77.9445362  34.5557541  58.8625723
  77.3989281  33.1445430  58.8108453  74.8903320  41.0331966  53.2890286
  74.7557787  40.2732366  52.7228284  74.4735382  41.7572865  52.8219075
  78.0472445  41.9301283  53.5008729  77.9304830  42.8746715  53.3987419
  77.2264892  41.6274844  53.8894528  72.3787387  28.3951596  59.5383083
  73.0246251  27.8850550  60.0270308  72.1704538  29.1320278  60.1126508
  76.7184878  25.5419213  63.6358097  77.5816340  25.1856018  63.8461422
  76.1450289  25.2033108  64.3233501  75.9380456  12.1505370  39.9308441
  76.7301748  11.8096195  39.5154740  76.1777106  12.2600346  40.8510594
  75.4034683  12.0653993  35.2646945  75.9159204  12.8597243  35.4152510
  76.0557396  11.3680283  35.1980547  77.2129568  15.1819749  37.3469698
  77.3896196  16.1037714  37.1590682  78.0086402  14.8678168  37.7764078
  77.3153747  21.9381796  40.1161682  77.5550345  22.5700320  40.7940701
  76.4722943  21.5869836  40.4027042  74.9359924  14.9278551  42.4298019
  75.5213361  14.1822239  42.5625923  74.7384762  15.2382508  43.3134683
  77.7898579  17.9629798  37.4460461  77.1208954  18.4475926  36.9624501
  77.6511449  18.2099019  38.3603840  74.5782610  15.9081474  38.2921778
  75.4040630  15.6085246  37.9120422  74.2276662  15.1389096  38.7411567
  72.7791215  13.8267800  39.2510712  71.9423123  13.3989975  39.0694713
  72.7514860  14.0200244  40.1881503  71.9628972  10.5080060  41.0052766
  71.2692443  10.0934013  40.4922720  72.7101963  10.5500596  40.4086185
  73.8765714  10.4398314  38.8818780  73.8536402  10.5386001  37.9300664
  74.1866351  11.2863464  39.2035947  76.5353092  12.4974469  42.9965395
  77.4896346  12.4658411  42.9295326  76.3365616  12.0365092  43.8115621
  74.8903321  18.0394088  40.0135593  74.7557789  17.2794489  39.4473591
  74.4735383  18.7634988  39.5464382  78.0472447  18.9363405  40.2254035
  77.9304831  19.8808838  40.1232726  77.2264893  18.6336967  40.6139835
  18.9353052  37.3163026  72.2302762  18.2841032  37.9017106  71.8436776
  19.7297415  37.8469221  72.2897800  12.8608679  34.4052163  72.6289897
  13.6339555  33.8581150  72.4902773  13.2134078  35.2696412  72.8404358
  15.1974957  30.5644829  70.2608347  15.4500477  30.0426350  69.4991810
  14.2599516  30.4010974  70.3635030  20.4128317  35.0053458  72.7671747
  19.7774150  35.0788084  73.4792651  20.0825723  35.5947057  72.0890826
  16.9008273  26.9572982  71.1640759  17.0682676  27.8253218  71.5311230
  16.7105443  27.1200263  70.2402049  14.6404386  42.1834281  75.7977557
  14.5628416  43.1342106  75.8766038  14.0366030  41.8380154  76.4552484
  22.5782560  29.8852112  72.9767760  23.4900417  30.1179499  72.8015458
  22.0692208  30.4689157  72.4142839  25.0641375  35.8032369  77.7225705
  24.3792413  36.1831270  77.1722739  25.1485224  36.4127695  78.4557653
  31.5244127  32.6703032  78.8428378  30.7707836  32.1010430  78.6872382
  31.6591669  32.6365696  79.7899013  16.9142755  37.5416434  74.5183097
  16.7788430  38.3867970  74.9467945  17.4552568  37.7435712  73.7549031
  20.2285502  31.0555607  71.5554426  19.7132125  31.8260212  71.7942813
  19.9562810  30.3820743  72.1787487  25.2019776  33.8087962  73.4907599
  24.4249219  33.4699121  73.0462761  25.8811257  33.8140585  72.8162564
  18.4618237  35.0872922  75.0307161  17.9339598  34.3525682  74.7180398
  17.9605739  35.8647599  74.7847129  16.6070837  32.9053133  68.0342134
  15.6997899  32.6742386  68.2333283  17.1041869  32.1090752  68.2216116
  19.5138916  41.6150640  70.9538820  18.8400614  41.9182337  71.5623778
  19.9004738  42.4179720  70.6044277  17.7859070  33.0065728  72.5566124
  16.8770290  32.7224760  72.6538594  17.8154154  33.4264806  71.6969431
  23.0178338  36.6172317  76.3257292  22.5640665  35.7763227  76.3822482
  22.3872304  37.2533715  76.6632072  21.4611277  38.4548814  77.2607110
  21.7534251  39.0153871  76.5419475  21.9709897  38.7477375  78.0160269
  17.4835158  34.5474471  69.8954203  17.0454588  33.8310330  69.4359840
  18.2245599  34.7750586  69.3339294  25.6008273  32.8231668  75.9530521
  25.4626171  33.0133264  75.0251710  25.2444492  33.5851051  76.4098572
  17.7130131  41.7830312  73.1685899  17.8881887  41.3118355  73.9831522
  17.0262919  42.4096078  73.3967160  21.6046386  33.4058853  69.4886260
  20.9875556  32.6805681  69.3919313  21.1362874  34.1668213  69.1453334
  13.3944932  27.6244277  68.6107564  12.5174398  27.5033078  68.2469811
  13.8702685  26.8330355  68.3586453  16.5808858  39.9770568  75.8570085
  15.7976380  40.5192248  75.9508310  17.2801603  40.4944547  76.2564326
  20.9735288  34.5436884  76.0742714  20.0391567  34.6638347  75.9047418
  21.1511957  33.6409351  75.8102724  22.4284071  36.7298025  73.6078900
  22.7043915  36.6154619  74.5172774  21.5588570  36.3315510  73.5691073
  19.0638135  40.9784376  77.2511714  19.2460529  40.1606032  77.7139466
  19.8871121  41.1952068  76.8136604  19.3980300  39.9052561  74.5126762
  19.9268067  39.3945015  73.8996924  19.6608520  39.5895091  75.3772295
  22.4920484  39.8769359  75.1281745  22.6657361  39.3115781  74.3755598
  22.9849375  40.6770254  74.9461235  28.3459875  32.6405782  76.7472045
  28.7891021  31.8913107  76.3491168  27.4686385  32.6315918  76.3645777
  23.4795656  39.1936123  72.2278643  24.1746561  39.8142816  72.4465958
  23.8218807  38.3431475  72.5031021  25.3787080  36.6435829  73.7565974
  25.9038404  36.9823102  73.0315294  25.2909432  35.7082844  73.5729109
  17.0627740  42.7107812  78.1161227  16.6232731  42.2184191  78.8094084
  17.8135857  42.1680780  77.8753303  14.0715119  36.8049745  73.6641989
  14.2203240  37.4885209  73.0108662  14.8781563  36.7854835  74.1791445
  27.8892740  34.1111020  79.1394492  28.7239631  34.5500824  79.3032053
  28.0251869  33.6349673  78.3202738  17.5710525  39.2997875  71.1353737
  16.9984492  39.9188062  70.6824209  18.1443319  39.8497237  71.6693659
  20.7907785  39.5835025  72.2662319  21.7238458  39.5180587  72.4695195
  20.7030997  40.4191292  71.8076852  23.4195801  38.9000896  69.2266267
  23.3409433  38.5660759  70.1202025  24.2405468  39.3922663  69.2257739
  17.9557323  30.6358688  68.4769789  18.9016428  30.5064896  68.5458207
  17.5771568  29.8973350  68.9539218  16.1400241  28.5608664  68.4124675
  15.2331696  28.2641777  68.4887388  16.4176222  28.2638482  67.5458961
  14.9099025  25.4195599  68.5536654  15.7718189  25.7450498  68.8132471
  15.0949369  24.6327095  68.0409720  20.9899753  36.2168891  68.8476245
  21.6935603  36.4218893  69.4633901  20.2662402  36.7845653  69.1125329
  21.8197563  31.9678752  74.9678515  21.7632765  32.4247304  74.1286148
  22.3725906  31.2069437  74.7901358  22.8986451  36.6551420  70.8974705
  23.7332054  36.2232619  70.7152180  22.7370793  36.4833434  71.8251600
  22.5532343  33.1583533  72.2631044  22.4981147  32.9927805  71.3219489
  21.9278398  33.8659566  72.4193234  31.5270726  47.1721071  80.9929882
  32.1649136  47.0527819  80.2893222  31.4091569  48.1201915  81.0517834
  28.3360432  47.1248499  80.9291407  27.9978943  47.0089564  80.0411941
  29.2050200  46.7239664  80.9092413  24.1947248  48.9783976  76.9188298
  23.6312113  48.8873913  76.1504585  24.0799643  48.1583880  77.3990790
  21.7411680  50.4735167  79.7572518  22.5332971  50.1325992  79.3418817
  21.9808330  50.5830142  80.6774671  29.7746806  52.6454943  72.2302762
  29.1234786  53.2309024  71.8436776  30.5691169  53.1761138  72.2897800
  23.7002433  49.7344081  72.6289897  24.4733309  49.1873068  72.4902773
  24.0527832  50.5988330  72.8404358  26.4643683  48.4397311  82.4258156
  27.0607255  48.2153334  81.7115119  26.5218654  47.6982057  83.0283604
  26.0368711  45.8936747  70.2608347  26.2894232  45.3718268  69.4991810
  25.0993270  45.7302892  70.3635030  31.0811994  44.8972525  78.0683090
  31.8675083  44.4791948  77.7173507  31.3450698  45.8018617  78.2364738
  31.2522071  50.3345375  72.7671747  30.6167904  50.4080002  73.4792651
  30.9219478  50.9238974  72.0890826  36.4820421  44.8347758  78.9716068
  37.2145593  44.2646975  79.2053898  35.7259777  44.4469359  79.4122574
  25.7565000  47.7964853  72.4632722  25.6401258  47.1209756  73.1313806
  25.8667260  47.3097227  71.6464875  28.0996541  47.2575000  76.1679411
  27.7354748  46.7305621  76.8792332  28.9563657  46.8673469  75.9945896
  34.0045842  38.5469332  83.4310677  33.6729166  39.4164743  83.2071892
  33.4091455  38.2305616  84.1104707  27.7402028  42.2864899  71.1640759
  27.9076430  43.1545136  71.5311230  27.5499197  42.4492181  70.2402049
  30.4977361  50.7481878  82.8306590  30.1978084  51.6506917  82.7222397
  30.1528421  50.4814062  83.6827743  23.9489843  47.1995675  78.8643294
  23.0240339  47.0671889  79.0720986  24.1974256  47.9789894  79.3613237
  33.8974505  43.2664419  80.5104027  32.9891382  43.1979827  80.2162788
  33.8462101  43.7436363  81.3385853  27.7191249  44.7422557  72.1487426
  27.5990874  45.1879608  72.9872907  27.0243837  45.0907875  71.5900964
  21.3098654  46.8428949  79.6987083  21.4391035  47.0963428  80.6126495
  20.6296105  47.4356657  79.3791738  25.4798141  57.5126199  75.7977557
  25.4022171  58.4634024  75.8766038  24.8759785  57.1672071  76.4552484
  35.7636151  41.4680857  82.2881901  35.1210532  41.7613390  81.6421696
  35.2591080  41.3533777  83.0935098  33.4176315  45.2144030  72.9767760
  34.3294171  45.4471417  72.8015458  32.9085962  45.7981074  72.4142839
  28.0548153  44.5741265  83.9862610  28.9009348  44.9980678  84.1297259
  27.9946790  43.9174889  84.6801173  32.0245897  50.1969849  80.3681342
  31.3954760  50.3615563  79.6657410  31.6371559  50.6111458  81.1392306
  35.9035129  51.1324286  77.7225705  35.2186167  51.5123188  77.1722739
  35.9878978  51.7419613  78.4557653  33.1586061  48.7784245  84.3221049
  33.3702956  49.4216005  83.6455430  33.1115809  47.9446562  83.8542979
  30.7612290  41.3902066  81.2257621  29.8996769  41.6883320  81.5174359
  30.7874724  41.6072465  80.2938654  27.5773859  49.9344257  77.6331427
  28.0412205  50.2131960  76.8436049  27.3130657  49.0327701  77.4504518
  24.4697940  49.4815738  80.5711190  25.0399297  49.9103007  79.9328675
  25.0606052  49.1998323  81.2695376  26.5142745  46.0567409  74.4420992
  27.2166789  46.5088453  74.9094918  26.1823374  45.4151228  75.0700885
  20.2568079  44.3150962  79.7438126  19.4667133  44.5708490  79.2678236
  20.7479327  45.1299300  79.8490166  22.2082825  44.6795541  76.7021602
  21.4113988  44.7914235  77.2205098  21.9808417  45.0182193  75.8362493
  42.3637882  47.9994949  78.8428378  41.6101590  47.4302347  78.6872382
  42.4985423  47.9657614  79.7899013  27.7536510  52.8708352  74.5183097
  27.6182185  53.7159887  74.9467945  28.2946322  53.0727629  73.7549031
  21.2065907  50.3883790  75.0911022  21.7190428  51.1827040  75.2416587
  21.8588620  49.6910080  75.0244624  23.0160792  53.5049546  77.1733775
  23.1927420  54.4267511  76.9854759  23.8117625  53.1907965  77.6028155
  19.1714824  48.7172444  75.8670593  20.0090046  49.1269452  75.6504301
  19.3493092  47.7771886  75.8370787  31.0679256  46.3847525  71.5554426
  30.5525880  47.1552129  71.7942813  30.7956565  45.7112661  72.1787487
  28.6526367  41.2297225  76.6139664  27.7967963  40.8404076  76.4345303
  29.0653319  41.3089186  75.7539450  30.1825514  38.7643569  81.0131224
  29.6790309  38.7273704  80.1999029  30.4756121  39.6736311  81.0727881
  26.4268400  38.8482298  80.0197406  27.2921396  38.6525107  79.6603295
  26.4945909  38.6192650  80.9466762  36.0413530  49.1379879  73.4907599
  35.2642973  48.7991039  73.0462761  36.7205011  49.1432502  72.8162564
  30.8565559  44.2574617  73.3814207  30.5515695  44.5720766  74.2324350
  31.8096001  44.3356037  73.4241540  29.3011991  50.4164840  75.0307161
  28.7733353  49.6817600  74.7180398  28.7999494  51.1939516  74.7847129
  34.2804837  48.6113861  80.1474207  33.6228512  49.3013122  80.2354336
  35.0845236  49.0010292  80.4908194  24.0330719  41.0784506  77.3913772
  24.6074471  40.8559688  76.6586965  24.6201701  41.1473201  78.1442374
  33.0910296  46.9658233  78.1978149  33.6042178  47.5988225  78.6999859
  33.7411520  46.3659429  77.8321509  24.3600306  43.1088967  71.4109658
  23.5237618  43.4463654  71.7318932  24.2205076  42.9737947  70.4736795
  26.3353386  37.9525755  76.1188842  25.6817799  37.6374772  75.4945457
  26.2933861  37.3301496  76.8448665  27.4464591  48.2345050  68.0342134
  26.5391653  48.0034304  68.2333283  27.9435623  47.4382670  68.2216116
  30.3532670  56.9442558  70.9538820  29.6794369  57.2474254  71.5623778
  30.7398492  57.7471638  70.6044277  29.5691127  44.4407689  80.4436489
  28.6513688  44.6622636  80.2858178  29.9851270  44.5153999  79.5848197
  30.3526175  45.8399104  75.5739170  31.0997994  46.3520502  75.2646292
  30.6217764  45.5183157  76.4343563  28.6252825  48.3357645  72.5566124
  27.7164044  48.0516678  72.6538594  28.6547909  48.7556724  71.6969431
  33.8572092  51.9464235  76.3257292  33.4034419  51.1055145  76.3822482
  33.2266059  52.5825633  76.6632072  32.8005012  42.8756221  77.5557959
  32.0627769  42.3633607  77.8868202  33.0531785  42.4356602  76.7441236
  32.3005031  53.7840731  77.2607110  32.5928006  54.3445788  76.5419475
  32.8103652  54.0769292  78.0160269  32.9016639  35.6532473  78.1499728
  33.2075516  34.7929836  77.8625643  33.6269244  36.2450093  77.9498722
  19.1940995  46.0563159  76.5381326  18.9965395  45.4632520  75.8132393
  18.6387659  45.7515370  77.2557265  27.1737719  45.9486266  78.6575919
  27.2286329  44.9960102  78.5818396  26.3628921  46.1045705  79.1417218
  28.3228913  49.8766389  69.8954203  27.8848342  49.1602248  69.4359840
  29.0639353  50.1042504  69.3339294  25.1130079  44.5663326  76.4166298
  24.2997944  44.8657496  76.8231490  25.6089073  44.1719014  77.1340781
  27.2638657  54.5621082  78.3500563  27.2214835  54.7881929  77.4209095
  28.1801355  54.3284457  78.4986364  30.7104290  45.0305150  85.2481192
  31.0653678  45.2576623  86.1075658  31.3576422  45.3623527  84.6258447
  36.4402027  48.1523586  75.9530521  36.3019926  48.3425182  75.0251710
  36.0838246  48.9142969  76.4098572  24.6044153  42.1381681  82.0327533
  25.2443533  41.9970440  81.3350497  23.7721684  41.8516194  81.6566135
  36.4671407  50.2200113  80.9641793  36.9007914  50.1275402  81.8124847
  37.1802988  50.1957613  80.3261809  25.3804457  51.4384111  78.1462526
  26.1745056  50.9434432  77.9445101  24.6696150  50.9101975  77.7830231
  21.6887221  45.5827193  74.2222278  20.7584809  45.5211649  74.4392240
  21.7844693  45.0603146  73.4258920  21.6072770  42.1082006  76.8100520
  21.8679587  43.0227339  76.7009680  22.4289942  41.6406449  76.9597133
  29.1587402  47.9862469  84.0561825  30.0879462  48.1373629  83.8830792
  28.7378432  48.0746490  83.2010472  27.9575733  52.0113133  81.8260363
  27.8186819  51.6431918  82.6986301  27.1690330  52.5260773  81.6544321
  28.5523885  57.1122230  73.1685899  28.7275641  56.6410273  73.9831522
  27.8656673  57.7387996  73.3967160  29.5080949  51.3894736  79.2149201
  29.1730781  51.3495506  80.1106850  29.0084894  50.7239452  78.7419611
  32.4440140  48.7350771  69.4886260  31.8269311  48.0097599  69.3919313
  31.9756629  49.4960131  69.1453334  26.1107493  46.5082326  84.2285461
  26.8207112  45.8675518  84.1872080  26.0676801  46.7595220  85.1511642
  24.2338686  42.9536195  68.6107564  23.3568152  42.8324996  68.2469811
  24.7096439  42.1622273  68.3586453  15.7540826  47.7413355  78.7049072
  16.4411866  47.4275085  78.1170087  15.5988955  48.6454719  78.4316323
  27.4202612  55.3062485  75.8570085  26.6370134  55.8484165  75.9508310
  28.1195357  55.8236465  76.2564326  30.7299262  41.1157115  78.5004290
  31.2267962  40.3627077  78.1805361  29.9586244  41.1521431  77.9347500
  38.5829020  46.8197480  80.1422582  38.5718896  47.7022196  79.7716515
  37.7146399  46.4669031  79.9477119  31.8129043  49.8728802  76.0742714
  30.8785322  49.9930264  75.9047418  31.9905711  48.9701269  75.8102724
  27.3134231  43.2574498  78.2275975  26.9432019  42.7045538  78.9156881
  27.8093323  42.6532631  77.6750975  35.2001594  45.7146121  76.6092748
  35.6662046  46.5474113  76.5353051  35.6509095  45.2491103  77.3138006
  33.2677825  52.0589942  73.6078900  33.5437669  51.9446537  74.5172774
  32.3982324  51.6607427  73.5691073  33.1718257  38.0826708  80.6483649
  32.2581337  38.3130935  80.8165856  33.6011358  38.1665152  81.4997682
  32.9424716  46.2716600  83.1483543  32.2896166  46.5192508  82.4935996
  33.3205095  45.4580738  82.8146021  29.9031889  56.3076293  77.2511714
  30.0854284  55.4897949  77.7139466  30.7264875  56.5243986  76.8136604
  30.2374055  55.2344478  74.5126762  30.7661821  54.7236933  73.8996924
  30.5002274  54.9187009  75.3772295  23.5929803  56.2859595  77.2724538
  22.9240178  56.7705723  76.7888578  23.4542673  56.5328816  78.1867917
  18.9617380  44.5478050  74.0520470  19.2570821  43.6388728  73.9987524
  18.0605416  44.5265790  73.7301472  30.8703459  56.2685314  80.8570879
  30.7454598  55.4675054  80.3481824  31.5282550  56.7631508  80.3684848
  22.4911627  42.6234047  80.0348019  21.7698213  43.2370014  79.8955492
  23.2804883  43.1591811  79.9564665  20.6905222  42.2292148  74.1759795
  20.3617928  41.3489527  73.9934901  21.0444592  42.1739816  75.0636185
  29.9384800  53.8647050  78.6854781  29.7909763  52.9363758  78.8662351
  30.7638294  53.8867141  78.2011856  23.8047045  42.5165118  74.5435273
  24.1443117  43.0451039  73.8213881  24.2519165  42.8545524  75.3193840
  33.5418922  54.6875609  79.7719654  34.4665470  54.4818471  79.6344105
  33.3734226  54.4392010  80.6808995  25.7915192  41.0139739  72.7428566
  26.5123554  41.3920992  72.2392283  25.1680496  41.7328616  72.8463544
  29.9346315  41.7184888  73.6786898  30.1509929  42.6009526  73.3775726
  29.4540382  41.3271101  72.9492540  24.6745536  44.6770601  80.2557643
  24.5290117  44.9910904  81.1481924  24.1970740  45.2955502  79.7028541
  26.5341919  41.6673149  80.3038532  26.5203488  40.7714243  79.9670830
  27.2514347  41.6743813  80.9376818  28.3868050  42.1010489  82.3491660
  28.1285828  43.0227560  82.3475990  27.8553090  41.7040924  83.0392124
  33.3314238  55.2061277  75.1281745  33.5051116  54.6407699  74.3755598
  33.8243130  56.0062172  74.9461235  25.9378815  40.5487530  75.5726102
  26.0594726  39.6204176  75.7716990  25.6480857  40.5626216  74.6604418
  28.8070005  38.2342440  78.7092822  28.8291702  38.2981773  77.7544802
  29.2238064  37.3946949  78.9033328  39.1853630  47.9697700  76.7472045
  39.6284776  47.2205025  76.3491168  38.3080140  47.9607836  76.3645777
  34.3189411  54.5228041  72.2278643  35.0140316  55.1434734  72.4465958
  34.6612561  53.6723392  72.5031021  36.2180834  51.9727747  73.7565974
  36.7432158  52.3115019  73.0315294  36.1303187  51.0374762  73.5729109
  27.9021495  58.0399730  78.1161227  27.4626485  57.5476109  78.8094084
  28.6529612  57.4972697  77.8753303  20.3813834  54.2311271  78.1185855
  21.2071854  53.9315043  77.7384499  20.0307886  53.4618893  78.5675644
  25.3495367  53.5837739  80.1883529  24.7275376  52.9208444  79.8885757
  26.0200234  53.6098871  79.5057177  24.9108874  52.1341662  73.6641989
  25.0596994  52.8177127  73.0108662  25.7175317  52.1146752  74.1791445
  38.7286494  49.4402938  79.1394492  39.5633386  49.8792742  79.3032053
  38.8645623  48.9641591  78.3202738  22.6661507  48.1606840  74.6703058
  22.4207549  47.2569170  74.8683269  22.8357421  48.1623990  73.7282536
  21.9357154  43.8935197  72.1689220  21.2426399  43.9679552  71.5129256
  21.6908906  43.1295541  72.6910737  30.6070811  35.4530799  79.5728711
  30.8872565  34.7853988  80.1989137  31.3921418  35.6459894  79.0603374
  28.4104279  54.6289793  71.1353737  27.8378246  55.2479980  70.6824209
  28.9837073  55.1789154  71.6693659  34.4779669  43.8748433  83.3200286
  35.4297092  43.9746530  83.3412510  34.3083120  43.0826701  83.8298370
  32.4994049  40.9604016  83.5059687  31.9043981  41.2409029  82.8106175
  32.2143745  41.4497917  84.2776428  31.6301539  54.9126943  72.2662319
  32.5632212  54.8472505  72.4695195  31.5424752  55.7483210  71.8076852
  34.2589556  54.2292813  69.2266267  34.1803187  53.8952677  70.1202025
  35.0799223  54.7214581  69.2257739  36.9567747  47.0954552  82.4342585
  36.9244067  46.1570553  82.6202269  37.5668371  47.1738589  81.7008410
  28.7951078  45.9650605  68.4769789  29.7410183  45.8356814  68.5458207
  28.4165323  45.2265267  68.9539218  37.1062236  43.8865596  82.4800869
  36.5901284  43.1024053  82.2930797  37.9902184  43.5584313  82.6447388
  34.7672962  37.6306611  78.4396681  34.5697784  37.3221700  79.3240013
  35.3772668  38.3568250  78.5694611  40.8559594  46.2978422  82.1723073
  40.1292758  46.1634387  81.5639565  40.4406881  46.6055251  82.9779791
  26.9793995  43.8900582  68.4124675  26.0725450  43.5933695  68.4887388
  27.2569976  43.5930400  67.5458961  17.8971935  45.2106945  78.8623721
  17.5774720  44.3572253  78.5698095  17.3505364  45.4255523  79.6181688
  21.6751843  47.9269386  82.5793228  21.8937853  48.8586494  82.5981261
  22.0877617  47.5677361  83.3648031  28.5956061  38.4337472  74.5668916
  27.7856789  38.0884557  74.9424162  29.2840478  38.1245015  75.1556527
  30.5246609  37.5115518  76.1893213  31.0777648  37.9310972  76.8483236
  30.7616695  36.5851266  76.2316169  25.7492780  40.7487517  68.5536654
  26.6111944  41.0742415  68.8132471  25.9343124  39.9619013  68.0409720
  33.9025416  39.6216044  75.6971877  33.3224085  40.2800848  75.3149929
  33.6361349  38.7993388  75.2859294  32.3528982  39.0221101  77.8993197
  32.8528761  39.1337636  77.0907516  32.9964590  38.7182154  78.5394006
  19.6796938  48.7628111  78.7082857  19.6567626  48.8615798  77.7564741
  19.9897574  49.6093261  79.0300024  32.6850294  41.7816134  74.7528225
  31.7976149  42.0665785  74.5348420  33.1004283  41.6209897  73.9055502
  36.0364830  41.8062655  78.4682564  36.8125220  42.2959107  78.7407181
  35.3112964  42.2320709  78.9254434  38.4737389  42.5190274  79.5256505
  39.0681880  42.2786010  78.8149813  38.5463973  41.7997405  80.1530041
  31.8293508  51.5460809  68.8476245  32.5329358  51.7510811  69.4633901
  31.1056156  52.1137570  69.1125329  32.6591318  47.2970670  74.9678515
  32.6026519  47.7539221  74.1286148  33.2119660  46.5361354  74.7901358
  36.4696124  43.0860402  75.7928635  36.2133058  42.6857037  76.6236842
  35.8448992  43.8004196  75.6678774  40.7808462  45.8256475  78.2999926
  40.2208020  45.8949664  79.0731488  40.1751965  45.6497460  77.5799422
  33.7380205  51.9843338  70.8974705  34.5725809  51.5524536  70.7152180
  33.5764548  51.8125351  71.8251600  33.3926097  48.4875451  72.2631044
  33.3374901  48.3219723  71.3219489  32.7672152  49.1951484  72.4193234
  26.7022223  37.9883560  71.8416363  26.6900892  38.9325400  71.9984634
  27.5945645  37.8053706  71.5475824  26.6311787  56.6652451  79.9284119
  25.6807418  56.6654312  79.8148492  26.9344273  55.9185185  79.4120154
  30.5174342  34.5826337  76.0962300  29.7506738  34.0284823  76.2418982
  30.9285047  34.6548205  76.9576451  34.5396188  65.0635998  72.6289897
  35.3127064  64.5164985  72.4902773  34.8921587  65.9280248  72.8404358
  36.8762466  61.2228664  70.2608347  37.1287986  60.7010186  69.4991810
  35.9387025  61.0594810  70.3635030  36.5958755  63.1256770  72.4632722
  36.4795013  62.4501674  73.1313806  36.7061014  62.6389144  71.6464875
  38.5795782  57.6156817  71.1640759  38.7470185  58.4837054  71.5311230
  38.3892952  57.7784099  70.2402049  38.5585003  60.0714475  72.1487426
  38.4384629  60.5171525  72.9872907  37.8637592  60.4199792  71.5900964
  44.2570069  60.5435948  72.9767760  45.1687926  60.7763335  72.8015458
  43.7479717  61.1272992  72.4142839  37.3536500  61.3859327  74.4420992
  38.0560543  61.8380370  74.9094918  37.0217128  60.7443146  75.0700885
  33.0476579  60.0087459  76.7021602  32.2507742  60.1206153  77.2205098
  32.8202171  60.3474111  75.8362493  30.0108578  64.0464362  75.8670593
  30.8483801  64.4561370  75.6504301  30.1886846  63.1063804  75.8370787
  41.9073011  61.7139442  71.5554426  41.3919634  62.4844047  71.7942813
  41.6350319  61.0404578  72.1787487  39.4920122  56.5589143  76.6139664
  38.6361718  56.1695994  76.4345303  39.9047073  56.6381104  75.7539450
  41.6959314  59.5866534  73.3814207  41.3909449  59.9012684  74.2324350
  42.6489756  59.6647954  73.4241540  34.8724473  56.4076424  77.3913772
  35.4468225  56.1851606  76.6586965  35.4595456  56.4765119  78.1442374
  35.1994060  58.4380885  71.4109658  34.3631373  58.7755572  71.7318932
  35.0598830  58.3029865  70.4736795  37.1747141  53.2817673  76.1188842
  36.5211553  52.9666690  75.4945457  37.1327615  52.6593413  76.8448665
  38.2858346  63.5636968  68.0342134  37.3785408  63.3326221  68.2333283
  38.7829378  62.7674587  68.2216116  39.4646579  63.6649563  72.5566124
  38.5557799  63.3808596  72.6538594  39.4941663  64.0848641  71.6969431
  43.7410394  50.9824390  78.1499728  44.0469270  50.1221754  77.8625643
  44.4662998  51.5742011  77.9498722  30.0334750  61.3855077  76.5381326
  29.8359149  60.7924438  75.8132393  29.4781414  61.0807287  77.2557265
  39.1622667  65.2058307  69.8954203  38.7242097  64.4894165  69.4359840
  39.9033108  65.4334421  69.3339294  35.9523833  59.8955243  76.4166298
  35.1391699  60.1949414  76.8231490  36.4482827  59.5010932  77.1340781
  32.5280975  60.9119111  74.2222278  31.5978563  60.8503566  74.4392240
  32.6238447  60.3895064  73.4258920  32.4466524  57.4373924  76.8100520
  32.7073342  58.3519257  76.7009680  33.2683697  56.9698366  76.9597133
  43.2833895  64.0642688  69.4886260  42.6663065  63.3389516  69.3919313
  42.8150383  64.8252048  69.1453334  35.0732441  58.2828113  68.6107564
  34.1961907  58.1616913  68.2469811  35.5490194  57.4914191  68.3586453
  26.5934581  63.0705272  78.7049072  27.2805621  62.7567002  78.1170087
  26.4382709  63.9746637  78.4316323  29.8011134  59.8769968  74.0520470
  30.0964576  58.9680646  73.9987524  28.8999170  59.8557707  73.7301472
  31.5298976  57.5584065  74.1759795  31.2011682  56.6781444  73.9934901
  31.8838347  57.5031734  75.0636185  34.6440799  57.8457035  74.5435273
  34.9836872  58.3742956  73.8213881  35.0912920  58.1837441  75.3193840
  36.6308946  56.3431657  72.7428566  37.3517309  56.7212910  72.2392283
  36.0074250  57.0620534  72.8463544  40.7740069  57.0476806  73.6786898
  40.9903684  57.9301444  73.3775726  40.2934136  56.6563019  72.9492540
  36.7772569  55.8779447  75.5726102  36.8988481  54.9496093  75.7716990
  36.4874612  55.8918133  74.6604418  39.6463760  53.5634358  78.7092822
  39.6685457  53.6273691  77.7544802  40.0631819  52.7238866  78.9033328
  33.5055261  63.4898758  74.6703058  33.2601303  62.5861088  74.8683269
  33.6751176  63.4915908  73.7282536  32.7750909  59.2227115  72.1689220
  32.0820154  59.2971470  71.5129256  32.5302661  58.4587459  72.6910737
  41.4464565  50.7822716  79.5728711  41.7266319  50.1145906  80.1989137
  42.2315172  50.9751812  79.0603374  39.6344832  61.2942523  68.4769789
  40.5803937  61.1648731  68.5458207  39.2559077  60.5557185  68.9539218
  37.8187750  59.2192500  68.4124675  36.9119205  58.9225612  68.4887388
  38.0963731  58.9222318  67.5458961  28.7365690  60.5398863  78.8623721
  28.4168474  59.6864171  78.5698095  28.1899118  60.7547441  79.6181688
  39.4349815  53.7629389  74.5668916  38.6250544  53.4176474  74.9424162
  40.1234232  53.4536933  75.1556527  41.3640364  52.8407436  76.1893213
  41.9171402  53.2602889  76.8483236  41.6010450  51.9143184  76.2316169
  36.5886534  56.0779435  68.5536654  37.4505698  56.4034333  68.8132471
  36.7736878  55.2910931  68.0409720  44.7419171  54.9507961  75.6971877
  44.1617840  55.6092765  75.3149929  44.4755103  54.1285306  75.2859294
  43.5244049  57.1108052  74.7528225  42.6369904  57.3957702  74.5348420
  43.9398038  56.9501815  73.9055502  42.6687262  66.8752726  68.8476245
  43.3723112  67.0802729  69.4633901  41.9449911  67.4429488  69.1125329
  37.5415977  53.3175478  71.8416363  37.5294647  54.2617318  71.9984634
  38.4339399  53.1345623  71.5475824  41.3568097  49.9118254  76.0962300
  40.5900492  49.3576741  76.2418982  41.7678802  49.9840123  76.9576451
  18.9353053  14.3225148  58.9548069  18.2841033  14.9079229  58.5682083
  19.7297416  14.8531343  59.0143107  12.8608680  11.4114286  59.3535203
  13.6339556  10.8643273  59.2148079  13.2134079  12.2758535  59.5649665
  15.1974958   7.5706952  56.9853653  15.4500479   7.0488473  56.2237116
  14.2599517   7.4073097  57.0880337  20.4128318  12.0115580  59.4917053
  19.7774151  12.0850207  60.2037958  20.0825725  12.6009179  58.8136133
  16.9008275   3.9635104  57.8886066  17.0682677   4.8315341  58.2556537
  16.7105444   4.1262386  56.9647355  14.6404388  19.1896404  62.5222864
  14.5628417  20.1404229  62.6011345  14.0366031  18.8442276  63.1797790
  22.5782562   6.8914235  59.7013067  23.4900418   7.1241622  59.5260764
  22.0692209   7.4751279  59.1388146  25.0641376  12.8094491  64.4471012
  24.3792414  13.1893393  63.8968045  25.1485225  13.4189818  65.1802960
  31.5244129   9.6765154  65.5673684  30.7707837   9.1072552  65.4117689
  31.6591670   9.6427819  66.5144319  16.9142757  14.5478557  61.2428404
  16.7788431  15.3930092  61.6713252  17.4552569  14.7497834  60.4794338
  20.2285503   8.0617730  58.2799732  19.7132126   8.8322334  58.5188120
  19.9562811   7.3882866  58.9032794  25.2019777  10.8150084  60.2152906
  24.4249220  10.4761244  59.7708068  25.8811258  10.8202707  59.5407871
  18.4618238  12.0935045  61.7552468  17.9339599  11.3587805  61.4425705
  17.9605741  12.8709721  61.5092436  16.6070838   9.9115255  54.7587441
  15.6997900   9.6804509  54.9578590  17.1041870   9.1152875  54.9461422
  19.5138917  18.6212762  57.6784127  18.8400616  18.9244459  58.2869085
  19.9004739  19.4241843  57.3289584  17.7859072  10.0127850  59.2811431
  16.8770291   9.7286883  59.3783900  17.8154155  10.4326929  58.4214738
  23.0178339  13.6234440  63.0502598  22.5640666  12.7825350  63.1067789
  22.3872306  14.2595838  63.3877378  21.4611278  15.4610936  63.9852416
  21.7534253  16.0215993  63.2664782  21.9709899  15.7539497  64.7405575
  17.4835159  11.5536594  56.6199509  17.0454589  10.8372453  56.1605147
  18.2245600  11.7812709  56.0584601  25.6008274   9.8293791  62.6775828
  25.4626173  10.0195387  61.7497017  25.2444493  10.5913174  63.1343879
  17.7130132  18.7892435  59.8931206  17.8881888  18.3180478  60.7076829
  17.0262920  19.4158201  60.1212467  21.6046387  10.4120975  56.2131567
  20.9875558   9.6867804  56.1164620  21.1362875  11.1730336  55.8698641
  13.3944933   4.6306400  55.3352871  12.5174399   4.5095201  54.9715118
  13.8702686   3.8392478  55.0831760  16.5808859  16.9832690  62.5815392
  15.7976381  17.5254370  62.6753616  17.2801604  17.5006670  62.9809633
  20.9735290  11.5499007  62.7988020  20.0391568  11.6700469  62.6292725
  21.1511958  10.6471474  62.5348030  22.4284072  13.7360147  60.3324207
  22.7043916  13.6216742  61.2418081  21.5588571  13.3377632  60.2936380
  19.0638136  17.9846498  63.9757020  19.2460531  17.1668154  64.4384773
  19.8871122  18.2014190  63.5381910  19.3980302  16.9114683  61.2372069
  19.9268068  16.4007138  60.6242231  19.6608521  16.5957214  62.1017602
  22.4920485  16.8831482  61.8527052  22.6657363  16.3177904  61.1000904
  22.9849376  17.6832376  61.6706542  28.3459876   9.6467904  63.4717351
  28.7891022   8.8975230  63.0736475  27.4686387   9.6378041  63.0891083
  23.4795658  16.1998246  58.9523950  24.1746562  16.8204939  59.1711265
  23.8218808  15.3493597  59.2276328  25.3787081  13.6497951  60.4811281
  25.9038405  13.9885224  59.7560601  25.2909433  12.7144967  60.2974415
  17.0627742  19.7169935  64.8406534  16.6232732  19.2246313  65.5339391
  17.8135859  19.1742902  64.5998609  14.0715121  13.8111867  60.3887296
  14.2203241  14.4947332  59.7353969  14.8781564  13.7916957  60.9036752
  27.8892741  11.1173143  65.8639799  28.7239632  11.5562947  66.0277359
  28.0251870  10.6411796  65.0448045  17.5710526  16.3059998  57.8599044
  16.9984493  16.9250185  57.4069515  18.1443320  16.8559359  58.3938965
  20.7907786  16.5897148  58.9907626  21.7238459  16.5242709  59.1940501
  20.7030999  17.4253415  58.5322158  23.4195803  15.9063018  55.9511573
  23.3409434  15.5722882  56.8447331  24.2405469  16.3984786  55.9503046
  17.9557325   7.6420810  55.2015096  18.9016429   7.5127018  55.2703514
  17.5771570   6.9035472  55.6784524  16.1400242   5.5670787  55.1369981
  15.2331697   5.2703899  55.2132695  16.4176223   5.2700605  54.2704268
  14.9099026   2.4257722  55.2781960  15.7718190   2.7512620  55.5377778
  15.0949371   1.6389218  54.7655026  20.9899754  13.2231013  55.5721552
  21.6935605  13.4281016  56.1879207  20.2662403  13.7907775  55.8370635
  21.8197565   8.9740875  61.6923822  21.7632766   9.4309426  60.8531454
  22.3725907   8.2131559  61.5146665  22.8986452  13.6613543  57.6220012
  23.7332056  13.2294741  57.4397487  22.7370795  13.4895556  58.5496906
  22.5532344  10.1645656  58.9876351  22.4981148   9.9989927  58.0464795
  21.9278399  10.8721689  59.1438541  31.5270727  24.1783194  67.7175189
  32.1649137  24.0589941  67.0138529  31.4091570  25.1264038  67.7763141
  28.3360433  24.1310622  67.6536713  27.9978945  24.0151687  66.7657248
  29.2050201  23.7301787  67.6337719  24.1947249  25.9846098  63.6433604
  23.6312114  25.8936035  62.8749892  24.0799644  25.1646003  64.1236097
  28.8180216  25.2845474  73.6122919  28.8068857  24.8898272  72.7403422
  28.9800856  24.5511546  74.2056690  21.7411681  27.4797290  66.4817825
  22.5332973  27.1388115  66.0664124  21.9808331  27.5892265  67.4019978
  29.7746808  29.6517066  58.9548069  29.1234787  30.2371146  58.5682083
  30.5691170  30.1823261  59.0143107  23.7002435  26.7406203  59.3535203
  24.4733311  26.1935190  59.2148079  24.0527834  27.6050453  59.5649665
  25.5387477  28.0682585  72.5602103  25.2477343  28.9728216  72.4448769
  26.1744462  28.1099113  73.2746172  26.4643684  25.4459434  69.1503462
  27.0607256  25.2215456  68.4360425  26.5218656  24.7044179  69.7528910
  26.0368713  22.8998869  56.9853653  26.2894233  22.3780391  56.2237116
  25.0993272  22.7365015  57.0880337  31.0811995  21.9034648  64.7928397
  31.8675085  21.4854071  64.4418814  31.3450700  22.8080740  64.9610045
  31.2522073  27.3407498  59.4917053  30.6167906  27.4142124  60.2037958
  30.9219479  27.9301097  58.8136133  36.4820423  21.8409881  65.6961375
  37.2145594  21.2709098  65.9299205  35.7259778  21.4531481  66.1367881
  25.7565001  24.8026975  59.1878028  25.6401259  24.1271879  59.8559113
  25.8667261  24.3159349  58.3710181  28.0996542  24.2637122  62.8924718
  27.7354749  23.7367743  63.6037639  28.9563658  23.8735591  62.7191203
  34.0045843  15.5531455  70.1555984  33.6729168  16.4226866  69.9317199
  33.4091456  15.2367739  70.8350014  27.7402029  19.2927022  57.8886066
  27.9076432  20.1607258  58.2556537  27.5499198  19.4554304  56.9647355
  30.4977362  27.7544001  69.5551896  30.1978085  28.6569040  69.4467704
  30.1528422  27.4876184  70.4073049  23.9489844  24.2057798  65.5888601
  23.0240340  24.0734012  65.7966293  24.1974257  24.9852017  66.0858543
  33.8974506  20.2726541  67.2349334  32.9891384  20.2041950  66.9408095
  33.8462102  20.7498486  68.0631159  27.7191250  21.7484680  58.8732733
  27.5990875  22.1941730  59.7118213  27.0243838  22.0969997  58.3146271
  21.3098655  23.8491071  66.4232390  21.4391036  24.1025550  67.3371802
  20.6296106  24.4418779  66.1037045  25.4798142  34.5188321  62.5222864
  25.4022172  35.4696146  62.6011345  24.8759786  34.1734194  63.1797790
  35.7636153  18.4742980  69.0127208  35.1210533  18.7675513  68.3667002
  35.2591081  18.3595900  69.8180404  33.4176316  22.2206153  59.7013067
  34.3294172  22.4533539  59.5260764  32.9085963  22.8043197  59.1388146
  31.7017084  26.6430781  73.3374359  32.1100440  26.2013191  72.5928992
  30.9794345  26.0683408  73.5908552  28.0548154  21.5803387  70.7107916
  28.9009349  22.0042801  70.8542565  27.9946792  20.9237012  71.4046480
  32.0245899  27.2031971  67.0926648  31.3954761  27.3677685  66.3902716
  31.6371561  27.6173581  67.8637612  35.9035130  28.1386409  64.4471012
  35.2186169  28.5185310  63.8968045  35.9878980  28.7481736  65.1802960
  33.1586062  25.7846368  71.0466356  33.3702957  26.4278128  70.3700737
  33.1115810  24.9508685  70.5788286  30.7612291  18.3964189  67.9502928
  29.8996770  18.6945442  68.2419665  30.7874726  18.6134588  67.0183960
  27.5773860  26.9406379  64.3576733  28.0412206  27.2194082  63.5681356
  27.3130659  26.0389824  64.1749824  24.4697941  26.4877861  67.2956497
  25.0399299  26.9165129  66.6573981  25.0606053  26.2060446  67.9940682
  26.5142746  23.0629532  61.1666299  27.2166790  23.5150575  61.6340225
  26.1823375  22.4213351  61.7946192  20.2568080  21.3213084  66.4683432
  19.4667134  21.5770613  65.9923543  20.7479328  22.1361422  66.5735473
  34.2731890  28.6618323  69.2188713  35.0949334  28.2598511  68.9371395
  34.2694293  28.5586558  70.1704829  22.2082826  21.6857664  63.4266909
  21.4113989  21.7976358  63.9450405  21.9808418  22.0244316  62.5607799
  28.0388493  28.2102367  71.3749423  28.1032926  28.6722774  72.2107595
  27.3299417  27.5799732  71.5031733  42.3637883  25.0057072  65.5673684
  41.6101591  24.4364470  65.4117689  42.4985424  24.9719736  66.5144319
  27.7536511  29.8770474  61.2428404  27.6182186  30.7222010  61.6713252
  28.2946324  30.0789752  60.4794338  21.2065908  27.3945912  61.8156329
  21.7190429  28.1889163  61.9661894  21.8588621  26.6972203  61.7489930
  23.0160793  30.5111669  63.8979082  23.1927422  31.4329633  63.7100066
  23.8117627  30.1970088  64.3273462  29.3804987  30.4994041  75.3728746
  28.9368842  29.7130419  75.0549650  30.0422201  30.6873191  74.7072637
  24.1392109  32.0289842  69.8989424  24.6899534  31.9006906  69.1266418
  23.3003585  32.3284731  69.5484317  31.4786226  30.7796841  73.4010147
  31.4604701  31.6005722  72.9090416  32.4006146  30.6550916  73.6260288
  27.9359280  28.2940970  74.2433656  28.4687616  27.5329258  74.0132964
  27.4073361  28.0014622  74.9857810  19.1714825  25.7234567  62.5915899
  20.0090047  26.1331575  62.3749607  19.3493093  24.7834009  62.5616093
  31.0679257  23.3909647  58.2799732  30.5525881  24.1614252  58.5188120
  30.7956566  22.7174783  58.9032794  28.6526368  18.2359348  63.3384971
  27.7967965  17.8466198  63.1590609  29.0653320  18.3151309  62.4784756
  30.1825515  15.7705691  67.7376531  29.6790311  15.7335826  66.9244336
  30.4756122  16.6798434  67.7973187  26.4268401  15.8544421  66.7442712
  27.2921398  15.6587230  66.3848602  26.4945910  15.6254773  67.6712069
  36.0413532  26.1442002  60.2152906  35.2642974  25.8053161  59.7708068
  36.7205012  26.1494625  59.5407871  30.8565561  21.2636739  60.1059514
  30.5515696  21.5782889  60.9569657  31.8096003  21.3418159  60.1486847
  29.3011992  27.4226963  61.7552468  28.7733354  26.6879722  61.4425705
  28.7999495  28.2001639  61.5092436  34.2804838  25.6175983  66.8719514
  33.6228513  26.3075245  66.9599642  35.0845238  26.0072415  67.2153500
  24.0330720  18.0846629  64.1159079  24.6074472  17.8621810  63.3832272
  24.6201702  18.1535323  64.8687680  33.0910297  23.9720356  64.9223456
  33.6042179  24.6050348  65.4245165  33.7411521  23.3721551  64.5566816
  24.3600307  20.1151090  58.1354964  23.5237619  20.4525777  58.4564239
  24.2205077  19.9800070  57.1982101  26.3353388  14.9587878  62.8434149
  25.6817800  14.6436895  62.2190763  26.2933862  14.3363618  63.5693971
  27.4464593  25.2407173  54.7587441  26.5391654  25.0096426  54.9578590
  27.9435625  24.4444792  54.9461422  30.3532671  33.9504680  57.6784127
  29.6794370  34.2536377  58.2869085  30.7398493  34.7533760  57.3289584
  29.5691128  21.4469811  67.1681796  28.6513689  21.6684758  67.0103484
  29.9851272  21.5216122  66.3093503  30.3526176  22.8461227  62.2984476
  31.0997995  23.3582624  61.9891598  30.6217765  22.5245280  63.1588870
  28.6252826  25.3419768  59.2811431  27.7164045  25.0578801  59.3783900
  28.6547910  25.7618846  58.4214738  33.8572093  28.9526357  63.0502598
  33.4034421  28.1117267  63.1067789  33.2266060  29.5887756  63.3877378
  32.8005013  19.8818343  64.2803266  32.0627770  19.3695730  64.6113508
  33.0531787  19.4418725  63.4686543  32.3005033  30.7902854  63.9852416
  32.5928007  31.3507911  63.2664782  32.8103653  31.0831415  64.7405575
  32.9016640  12.6594595  64.8745035  33.2075517  11.7991959  64.5870950
  33.6269245  13.2512216  64.6744029  19.1940996  23.0625282  63.2626633
  18.9965396  22.4694643  62.5377699  18.6387660  22.7577492  63.9802572
  27.1737720  22.9548388  65.3821226  27.2286330  22.0022225  65.3063703
  26.3628922  23.1107827  65.8662524  28.3228914  26.8828511  56.6199509
  27.8848344  26.1664370  56.1605147  29.0639355  27.1104626  56.0584601
  25.1130080  21.5725448  63.1411605  24.2997946  21.8719619  63.5476797
  25.6089074  21.1781137  63.8586087  27.2638658  31.5683205  65.0745870
  27.2214837  31.7944051  64.1454402  28.1801357  31.3346580  65.2231671
  30.7104292  22.0367273  71.9726499  31.0653679  22.2638746  72.8320965
  31.3576423  22.3685649  71.3503754  36.4402029  25.1585709  62.6775828
  36.3019927  25.3487304  61.7497017  36.0838247  25.9205091  63.1343879
  24.6044155  19.1443804  68.7572840  25.2443534  19.0032563  68.0595803
  23.7721685  18.8578317  68.3811442  36.4671408  27.2262236  67.6887099
  36.9007915  27.1337525  68.5370153  37.1802989  27.2019736  67.0507115
  25.3804459  28.4446234  64.8707832  26.1745057  27.9496554  64.6690407
  24.6696151  27.9164097  64.5075538  30.1999303  30.8264330  69.2220200
  30.2536325  31.3955266  69.9897916  29.3314084  30.9966215  68.8574237
  21.6887222  22.5889316  60.9467585  20.7584810  22.5273771  61.1637547
  21.7844694  22.0665269  60.1504226  21.6072771  19.1144129  63.5345827
  21.8679588  20.0289462  63.4254987  22.4289943  18.6468571  63.6842439
  37.3286958  27.2685936  70.2219985  37.5222848  28.1731747  70.4679260
  37.2287576  26.8093355  71.0558570  32.3902066  27.4192679  75.7960865
  32.2387573  27.1903231  74.8790949  32.3806746  28.3763280  75.8092210
  29.1587403  24.9924592  70.7807132  30.0879463  25.1435751  70.6076099
  28.7378433  25.0808612  69.9255778  27.9575735  29.0175256  68.5505669
  27.8186820  28.6494040  69.4231608  27.1690331  29.5322896  68.3789627
  28.5523887  34.1184353  59.8931206  28.7275642  33.6472396  60.7076829
  27.8656675  34.7450119  60.1212467  29.5080950  28.3956859  65.9394507
  29.1730782  28.3557629  66.8352157  29.0084895  27.7301575  65.4664917
  32.4440141  25.7412893  56.2131567  31.8269312  25.0159721  56.1164620
  31.9756630  26.5022253  55.8698641  26.1107494  23.5144448  70.9530768
  26.8207113  22.8737640  70.9117386  26.0676803  23.7657343  71.8756949
  34.0994273  30.4511801  73.8737347  34.0406819  29.7671022  73.2067930
  34.5013791  31.1930791  73.4217973  23.1184972  37.2673715  66.6671066
  23.3581570  37.8992239  67.3450085  22.2754168  36.9161755  66.9536425
  24.2338687  19.9598317  55.3352871  23.3568154  19.8387118  54.9715118
  24.7096440  19.1684396  55.0831760  34.1011680  28.4151385  72.1051327
  33.2138459  28.0777307  72.2277726  34.6710231  27.6834417  72.3420092
  15.7540827  24.7475477  65.4294378  16.4411867  24.4337207  64.8415394
  15.5988956  25.6516842  65.1561630  27.6312834  33.0752838  69.0712570
  27.5583005  33.8807809  69.5831875  27.1890227  33.2744804  68.2460591
  27.4202613  32.3124608  62.5815392  26.6370135  32.8546288  62.6753616
  28.1195359  32.8298587  62.9809633  30.7299263  18.1219237  65.2249597
  31.2267963  17.3689200  64.9050667  29.9586245  18.1583554  64.6592806
  38.5829021  23.8259603  66.8667889  38.5718897  24.7084318  66.4961822
  37.7146400  23.4731154  66.6722426  30.0911517  32.9739672  71.2270729
  30.8039489  33.6087137  71.1546630  29.6001546  33.0703538  70.4110731
  31.8129044  26.8790924  62.7988020  30.8785323  26.9992387  62.6292725
  31.9905713  25.9763391  62.5348030  27.3134232  20.2636620  64.9521282
  26.9432020  19.7107661  65.6402187  27.8093325  19.6594754  64.3996282
  35.2001596  22.7208244  63.3338055  35.6662048  23.5536235  63.2598357
  35.6509096  22.2553225  64.0383313  25.1423431  30.7234115  72.0476300
  25.8432890  31.3570598  72.2005694  24.6718546  31.0648847  71.2871939
  33.2677827  29.0652065  60.3324207  33.5437671  28.9508660  61.2418081
  32.3982325  28.6669550  60.2936380  33.1718258  15.0888831  67.3728956
  32.2581338  15.3193058  67.5411163  33.6011360  15.1727275  68.2242988
  32.9424717  23.2778723  69.8728850  32.2896167  23.5254630  69.2181303
  33.3205097  22.4642861  69.5391327  29.9031891  33.3138416  63.9757020
  30.0854285  32.4960072  64.4384773  30.7264877  33.5306108  63.5381910
  30.2374056  32.2406601  61.2372069  30.7661823  31.7299056  60.6242231
  30.5002276  31.9249131  62.1017602  20.7391149  30.2570470  68.9807402
  21.3244586  29.5114158  69.1135306  20.5415987  30.5674427  69.8644066
  23.5929804  33.2921718  63.9969845  22.9240179  33.7767845  63.5133885
  23.4542674  33.5390938  64.9113223  27.7335073  35.3265461  70.5952503
  28.2853381  35.4897083  71.3601588  28.0741266  35.9169899  69.9232528
  32.5845947  30.1526719  76.4501157  33.1285851  30.7656677  75.9556112
  32.0032792  30.7106297  76.9668170  18.9617381  21.5540173  60.7765777
  19.2570822  20.6450851  60.7232830  18.0605417  21.5327912  60.4546779
  30.8703460  33.2747437  67.5816185  30.7454599  32.4737177  67.0727131
  31.5282551  33.7693630  67.0930155  22.4911628  19.6296169  66.7593325
  21.7698214  20.2432137  66.6200799  23.2804884  20.1653934  66.6809971
  32.9338368  31.0756457  69.2095735  31.9868704  30.9561808  69.1374062
  33.2821141  30.1878955  69.2921997  20.6905223  19.2354270  60.9005102
  20.3617929  18.3551649  60.7180208  21.0444593  19.1801939  61.7881491
  29.9384802  30.8709173  65.4100087  29.7909764  29.9425880  65.5907658
  30.7638295  30.8929264  64.9257163  23.8047046  19.5227240  61.2680580
  24.1443118  20.0513161  60.5459188  24.2519166  19.8607646  62.0439146
  33.5418923  31.6937732  66.4964960  34.4665471  31.4880593  66.3589411
  33.3734227  31.4454133  67.4054302  25.7915193  18.0201862  59.4673872
  26.5123556  18.3983114  58.9637589  25.1680497  18.7390739  59.5708850
  29.9346316  18.7247011  60.4032205  30.1509930  19.6071649  60.1021033
  29.4540383  18.3333224  59.6737847  24.6745537  21.6832724  66.9802949
  24.5290118  21.9973027  67.8727231  24.1970741  22.3017624  66.4273848
  26.5341920  18.6735272  67.0283839  26.5203489  17.7776365  66.6916137
  27.2514348  18.6805936  67.6622125  28.3868051  19.1072612  69.0736966
  28.1285829  20.0289683  69.0721297  27.8553091  18.7103047  69.7637430
  33.3314240  32.2123399  61.8527052  33.5051117  31.6469822  61.1000904
  33.8243131  33.0124294  61.6706542  19.1491199  24.2238068  69.9190610
  18.6044668  24.9997876  70.0510885  20.0270549  24.5708873  69.7609732
  25.9378816  17.5549652  62.2971409  26.0594727  16.6266298  62.4962296
  25.6480859  17.5688338  61.3849724  28.8070007  15.2404563  65.4338129
  28.8291703  15.3043896  64.4790108  29.2238066  14.4009071  65.6278635
  39.1853631  24.9759822  63.4717351  39.6284777  24.2267147  63.0736475
  38.3080141  24.9669959  63.0891083  34.3189412  31.5290164  58.9523950
  35.0140317  32.1496856  59.1711265  34.6612562  30.6785515  59.2276328
  36.2180835  28.9789869  60.4811281  36.7432159  29.3177142  59.7560601
  36.1303188  28.0436884  60.2974415  27.8800884  32.8923943  72.6101157
  28.1888010  32.6473090  73.4823857  28.6776366  33.0970581  72.1220028
  27.9021496  35.0461852  64.8406534  27.4626486  34.5538231  65.5339391
  28.6529613  34.5034820  64.5998609  20.3813835  31.2373393  64.8431162
  21.2071855  30.9377165  64.4629806  20.0307887  30.4681016  65.2920951
  25.3495368  30.5899862  66.9128836  24.7275377  29.9270567  66.6131063
  26.0200235  30.6160993  66.2302483  18.5822440  29.1559720  65.8020096
  17.7454348  28.7281894  65.6204097  18.5546086  29.3492163  66.7390887
  35.9074741  29.6122773  75.7862479  35.1170285  29.5946912  75.2466978
  35.6708096  30.1511066  76.5411515  36.0272616  26.4615239  73.0995207
  36.0770621  26.2965247  74.0410730  35.9186540  25.5942498  72.7093088
  24.9108875  29.1403785  60.3887296  25.0596995  29.8239249  59.7353969
  25.7175319  29.1208875  60.9036752  33.3176379  22.4446167  74.4154514
  34.2186242  22.3052632  74.1238512  33.3924353  22.6100622  75.3552691
  37.5290813  28.8812181  73.3437229  37.2375622  29.2442161  74.1800690
  36.9162945  28.1679189  73.1650561  38.7286496  26.4465060  65.8639799
  39.5633387  26.8854865  66.0277359  38.8645624  25.9703714  65.0448045
  35.7778001  24.0044795  71.8117287  36.2532123  24.1972442  71.0036138
  34.8543567  24.0603981  71.5660670  22.6661508  25.1668962  61.3948365
  22.4207550  24.2631292  61.5928575  22.8357423  25.1686113  60.4527843
  21.9357156  20.8997320  58.8934526  21.2426401  20.9741675  58.2374562
  21.6908908  20.1357664  59.4156043  30.6070812  12.4592921  66.2974017
  30.8872566  11.7916110  66.9234444  31.3921419  12.6522017  65.7848681
  28.4104281  31.6351915  57.8599044  27.8378248  32.2542102  57.4069515
  28.9837074  32.1851277  58.3938965  34.4779670  20.8810555  70.0445592
  35.4297093  20.9808653  70.0657816  34.3083121  20.0888824  70.5543677
  32.4994050  17.9666139  70.2304993  31.9043982  18.2471151  69.5351482
  32.2143747  18.4560040  71.0021734  31.6301540  31.9189065  58.9907626
  32.5632214  31.8534627  59.1940501  31.5424753  32.7545332  58.5322158
  34.2589557  31.2354936  55.9511573  34.1803189  30.9014799  56.8447331
  35.0799224  31.7276704  55.9503046  36.9567748  24.1016675  69.1587892
  36.9244068  23.1632676  69.3447576  37.5668372  24.1800712  68.4253717
  28.7951079  22.9712728  55.2015096  29.7410184  22.8418936  55.2703514
  28.4165324  22.2327390  55.6784524  37.1062237  20.8927719  69.2046175
  36.5901285  20.1086175  69.0176104  37.9902185  20.5646435  69.3692695
  34.7672964  14.6368734  65.1641988  34.5697785  14.3283822  66.0485320
  35.3772669  15.3630373  65.2939918  42.7744298  25.1632682  68.2993929
  43.5047687  24.9017970  68.8601632  42.1651244  24.4261404  68.3395997
  40.8559595  23.3040545  68.8968380  40.1292759  23.1696509  68.2884872
  40.4406882  23.6117373  69.7025098  26.9793996  20.8962704  55.1369981
  26.0725452  20.5995817  55.2132695  27.2569977  20.5992523  54.2704268
  17.8971937  22.2169068  65.5869028  17.5774721  21.3634376  65.2943402
  17.3505365  22.4317646  66.3426995  21.6751844  24.9331509  69.3038534
  21.8937854  25.8648617  69.3226568  22.0877618  24.5739483  70.0893338
  28.5956062  15.4399594  61.2914223  27.7856790  15.0946679  61.6669469
  29.2840479  15.1307138  61.8801834  30.5246610  14.5177641  62.9138519
  31.0777649  14.9373094  63.5728542  30.7616697  13.5913389  62.9561475
  25.7492781  17.7549640  55.2781960  26.6111945  18.0804538  55.5377778
  25.9343125  16.9681136  54.7655026  17.7660197  25.8371979  67.5562149
  17.0723668  25.4225932  67.0432104  18.5133188  25.8792516  66.9595568
  33.9025417  16.6278166  62.4217183  33.3224086  17.2862970  62.0395236
  33.6361350  15.8055511  62.0104601  32.3528984  16.0283224  64.6238504
  32.8528762  16.1399758  63.8152823  32.9964592  15.7244277  65.2639312
  19.6796939  25.7690233  65.4328164  19.6567627  25.8677920  64.4810047
  19.9897576  26.6155384  65.7545330  22.3384317  27.8266388  69.5474779
  23.2927571  27.7950330  69.4804710  22.1396841  27.3657012  70.3625004
  22.9283699  26.3967504  72.1145576  23.7476588  26.8911583  72.1380413
  23.2020507  25.4799472  72.0863144  32.6850295  18.7878257  61.4773532
  31.7976150  19.0727907  61.2593726  33.1004284  18.6272020  60.6300809
  36.0364832  18.8124777  65.1927871  36.8125222  19.3021230  65.4652488
  35.3112966  19.2382832  65.6499740  38.4737390  19.5252397  66.2501812
  39.0681881  19.2848133  65.5395120  38.5463974  18.8059527  66.8775348
  20.6934546  33.3686008  66.5644976  20.5589014  32.6086409  65.9982974
  20.2766608  34.0926908  66.0973765  31.8293509  28.5522931  55.5721552
  32.5329359  28.7572934  56.1879207  31.1056158  29.1199693  55.8370635
  32.6591319  24.3032792  61.6923822  32.6026521  24.7601344  60.8531454
  33.2119662  23.5423477  61.5146665  36.4696125  20.0922524  62.5173941
  36.2133059  19.6919160  63.3482149  35.8448993  20.8066318  62.3924081
  40.7808463  22.8318598  65.0245233  40.2208021  22.9011787  65.7976795
  40.1751966  22.6559582  64.3044729  23.8503672  34.2655325  66.7763419
  23.7336056  35.2100757  66.6742109  23.0296118  33.9628886  67.1649218
  33.7380206  28.9905460  57.6220012  34.5725810  28.5586659  57.4397487
  33.5764549  28.8187474  58.5496906  33.3926098  25.4937574  58.9876351
  33.3374902  25.3281845  58.0464795  32.7672154  26.2013607  59.1438541
  26.7022224  14.9945683  58.5661669  26.6900894  15.9387523  58.7229940
  27.5945646  14.8115828  58.2721131  24.8758186  34.9183587  69.9919347
  25.7785433  34.9507197  70.3085842  24.6495556  33.9884038  70.0065683
  26.6311788  33.6714573  66.6529426  25.6807419  33.6716435  66.5393798
  26.9344274  32.9247308  66.1365461  30.5174343  11.5888459  62.8207606
  29.7506739  11.0346946  62.9664289  30.9285048  11.6610328  63.6821758
  42.3664481  39.5075111  67.7175189  43.0042891  39.3881859  67.0138529
  42.2485324  40.4555955  67.7763141  39.1754188  39.4602540  67.6536713
  38.8372699  39.3443604  66.7657248  40.0443956  39.0593705  67.6337719
  35.0341003  41.3138016  63.6433604  34.4705868  41.2227953  62.8749892
  34.9193398  40.4937920  64.1236097  39.6573971  40.6137391  73.6122919
  39.6462611  40.2190190  72.7403422  39.8194610  39.8803464  74.2056690
  32.5805435  42.8089208  66.4817825  33.3726727  42.4680032  66.0664124
  32.8202085  42.9184183  67.4019978  40.6140562  44.9808984  58.9548069
  39.9628542  45.5663064  58.5682083  41.4084925  45.5115179  59.0143107
  34.5396189  42.0698121  59.3535203  35.3127065  41.5227108  59.2148079
  34.8921588  42.9342370  59.5649665  36.3781232  43.3974503  72.5602103
  36.0871098  44.3020134  72.4448769  37.0138216  43.4391031  73.2746172
  37.3037439  40.7751352  69.1503462  37.9001011  40.5507374  68.4360425
  37.3612410  40.0336097  69.7528910  36.8762467  38.2290787  56.9853653
  37.1287988  37.7072308  56.2237116  35.9387026  38.0656932  57.0880337
  41.9205750  37.2326565  64.7928397  42.7068839  36.8145989  64.4418814
  42.1844454  38.1372658  64.9610045  42.0915827  42.6699416  59.4917053
  41.4561660  42.7434042  60.2037958  41.7613234  43.2593014  58.8136133
  47.3214177  37.1701799  65.6961375  48.0539349  36.6001015  65.9299205
  46.5653533  36.7823399  66.1367881  36.5958756  40.1318893  59.1878028
  36.4795014  39.4563796  59.8559113  36.7061016  39.6451267  58.3710181
  38.9390297  39.5929040  62.8924718  38.5748504  39.0659661  63.6037639
  39.7957413  39.2027509  62.7191203  44.8439597  30.8823373  70.1555984
  44.5122922  31.7518784  69.9317199  44.2485211  30.5659657  70.8350014
  38.5795784  34.6218940  57.8886066  38.7470186  35.4899176  58.2556537
  38.3892953  34.7846221  56.9647355  41.3371117  43.0835919  69.5551896
  41.0371840  43.9860957  69.4467704  40.9922176  42.8168102  70.4073049
  34.7883598  39.5349715  65.5888601  33.8634095  39.4025930  65.7966293
  35.0368012  40.3143935  66.0858543  44.7368261  35.6018459  67.2349334
  43.8285138  35.5333867  66.9408095  44.6855856  36.0790404  68.0631159
  38.5585005  37.0776597  58.8732733  38.4384630  37.5233648  59.7118213
  37.8637593  37.4261915  58.3146271  32.1492409  39.1782989  66.4232390
  32.2784791  39.4317468  67.3371802  31.4689861  39.7710697  66.1037045
  36.3191897  49.8480239  62.5222864  36.2415926  50.7988064  62.6011345
  35.7153540  49.5026111  63.1797790  38.8109126  37.0208104  75.1784231
  38.0342460  37.5802025  75.1687096  39.4499689  37.5064887  75.6999101
  46.6029907  33.8034897  69.0127208  45.9604287  34.0967430  68.3667002
  46.0984836  33.6887818  69.8180404  44.2570071  37.5498070  59.7013067
  45.1687927  37.7825457  59.5260764  43.7479718  38.1335115  59.1388146
  37.0655499  39.8293558  74.7402198  37.8070183  40.3678602  74.4637022
  36.3592484  40.4559847  74.8973750  42.5410838  41.9722698  73.3374359
  42.9494194  41.5305109  72.5928992  41.8188100  41.3975326  73.5908552
  38.8941908  36.9095305  70.7107916  39.7403104  37.3334719  70.8542565
  38.8340546  36.2528929  71.4046480  42.8639653  42.5323889  67.0926648
  42.2348515  42.6969603  66.3902716  42.4765315  42.9465498  67.8637612
  46.7428885  43.4678327  64.4471012  46.0579923  43.8477228  63.8968045
  46.8272734  44.0773653  65.1802960  42.0441354  34.5699673  72.3689090
  41.8002286  35.3241734  71.8323366  42.3201284  34.9485021  73.2036337
  43.9979817  41.1138286  71.0466356  44.2096712  41.7570046  70.3700737
  43.9509565  40.2800602  70.5788286  41.6006045  33.7256106  67.9502928
  40.7390525  34.0237360  68.2419665  41.6268480  33.9426505  67.0183960
  38.4167615  42.2698297  64.3576733  38.8805960  42.5486000  63.5681356
  38.1524413  41.3681742  64.1749824  35.3091696  41.8169778  67.2956497
  35.8793053  42.2457047  66.6573981  35.8999808  41.5352363  67.9940682
  37.3536501  38.3921449  61.1666299  38.0560544  38.8442493  61.6340225
  37.0217129  37.7505268  61.7946192  35.8016862  36.9833206  75.5417508
  35.1715523  37.6649487  75.7752905  35.6952950  36.8716288  74.5970646
  31.0961835  36.6505002  66.4683432  30.3060889  36.9062531  65.9923543
  31.5873082  37.4653340  66.5735473  45.1125644  43.9910241  69.2188713
  45.9343088  43.5890428  68.9371395  45.1088047  43.8878475  70.1704829
  33.0476580  37.0149581  63.4266909  32.2507744  37.1268275  63.9450405
  32.8202173  37.3536233  62.5607799  38.8782248  43.5394284  71.3749423
  38.9426680  44.0014692  72.2107595  38.1693172  42.9091649  71.5031733
  29.3799538  36.9035492  68.8998423  29.6307576  37.7882502  69.1655999
  29.9159086  36.7240094  68.1273515  53.2031638  40.3348990  65.5673684
  52.4495346  39.7656388  65.4117689  53.3379179  40.3011654  66.5144319
  38.5930266  45.2062392  61.2428404  38.4575940  46.0513928  61.6713252
  39.1340078  45.4081670  60.4794338  35.0797605  31.2853972  77.9042759
  34.6864551  30.7320170  78.5790403  35.8963746  31.5964550  78.2949277
  32.0459663  42.7237830  61.8156329  32.5584184  43.5181080  61.9661894
  32.6982376  42.0264120  61.7489930  33.8554548  45.8403586  63.8979082
  34.0321176  46.7621551  63.7100066  34.6511381  45.5262005  64.3273462
  37.9965566  32.7011851  75.4963016  38.7375280  33.3019004  75.4167478
  38.2283489  31.9589489  74.9381058  33.1406904  37.8868218  73.7741245
  33.0260419  36.9853475  74.0748344  32.2851422  38.1331915  73.4226062
  40.2198742  45.8285958  75.3728746  39.7762596  45.0422337  75.0549650
  40.8815956  46.0165109  74.7072637  34.9785863  47.3581760  69.8989424
  35.5293288  47.2298823  69.1266418  34.1397339  47.6576649  69.5484317
  42.3179980  46.1088758  73.4010147  42.2998455  46.9297639  72.9090416
  43.2399900  45.9842834  73.6260288  38.7753034  43.6232888  74.2433656
  39.3081371  42.8621176  74.0132964  38.2467115  43.3306540  74.9857810
  41.9422729  28.7292954  69.7727297  41.5986999  29.6194596  69.6966408
  42.3101692  28.5394611  68.9096882  30.0108580  41.0526484  62.5915899
  30.8483802  41.4623493  62.3749607  30.1886847  40.1125926  62.5616093
  41.9073012  38.7201565  58.2799732  41.3919635  39.4906170  58.5188120
  41.6350320  38.0466701  58.9032794  39.4920123  33.5651266  63.3384971
  38.6361719  33.1758116  63.1590609  39.9047075  33.6443227  62.4784756
  41.0219270  31.0997609  67.7376531  40.5184065  31.0627744  66.9244336
  41.3149876  32.0090352  67.7973187  37.2662155  31.1836339  66.7442712
  38.1315152  30.9879147  66.3848602  37.3339664  30.9546690  67.6712069
  46.8807286  41.4733920  60.2152906  46.1036729  41.1345079  59.7708068
  47.5598767  41.4786543  59.5407871  41.6959315  36.5928657  60.1059514
  41.3909451  36.9074806  60.9569657  42.6489757  36.6710077  60.1486847
  40.1405747  42.7518880  61.7552468  39.6127108  42.0171640  61.4425705
  39.6393250  43.5293557  61.5092436  45.1198593  40.9467901  66.8719514
  44.4622267  41.6367162  66.9599642  45.9238992  41.3364333  67.2153500
  34.8724474  33.4138547  64.1159079  35.4468226  33.1913728  63.3832272
  35.4595457  33.4827241  64.8687680  43.9304052  39.3012274  64.9223456
  44.4435933  39.9342265  65.4245165  44.5805276  38.7013469  64.5566816
  35.1994062  35.4443008  58.1354964  34.3631374  35.7817694  58.4564239
  35.0598831  35.3091987  57.1982101  37.1747142  30.2879796  62.8434149
  36.5211555  29.9728813  62.2190763  37.1327616  29.6655536  63.5693971
  38.2858347  40.5699091  54.7587441  37.3785409  40.3388344  54.9578590
  38.7829379  39.7736710  54.9461422  41.1926426  49.2796598  57.6784127
  40.5188125  49.5828295  58.2869085  41.5792248  50.0825678  57.3289584
  40.4084883  36.7761729  67.1681796  39.4907444  36.9976676  67.0103484
  40.8245026  36.8508040  66.3093503  41.1919930  38.1753145  62.2984476
  41.9391749  38.6874542  61.9891598  41.4611520  37.8537197  63.1588870
  39.4646581  40.6711685  59.2811431  38.5557800  40.3870718  59.3783900
  39.4941664  41.0910764  58.4214738  44.6965848  44.2818275  63.0502598
  44.2428175  43.4409185  63.1067789  44.0659815  44.9179673  63.3877378
  43.6398767  35.2110261  64.2803266  42.9021524  34.6987647  64.6113508
  43.8925541  34.7710643  63.4686543  43.1398787  46.1194772  63.9852416
  43.4321762  46.6799829  63.2664782  43.6497408  46.4123333  64.7405575
  43.7410395  27.9886513  64.8745035  44.0469272  27.1283876  64.5870950
  44.4663000  28.5804133  64.6744029  30.0334751  38.3917200  63.2626633
  29.8359151  37.7986560  62.5377699  29.4781415  38.0869410  63.9802572
  38.0131475  38.2840306  65.3821226  38.0680084  37.3314142  65.3063703
  37.2022677  38.4399745  65.8662524  39.1622668  42.2120429  56.6199509
  38.7242098  41.4956288  56.1605147  39.9033109  42.4396544  56.0584601
  35.9523834  36.9017366  63.1411605  35.1391700  37.2011536  63.5476797
  36.4482829  36.5073055  63.8586087  38.1032412  46.8975123  65.0745870
  38.0608591  47.1235969  64.1454402  39.0195111  46.6638497  65.2231671
  41.5498046  37.3659190  71.9726499  41.9047434  37.5930663  72.8320965
  42.1970177  37.6977567  71.3503754  47.2795783  40.4877626  62.6775828
  47.1413682  40.6779222  61.7497017  46.9232002  41.2497009  63.1343879
  35.4437909  34.4735721  68.7572840  36.0837289  34.3324480  68.0595803
  34.6115440  34.1870235  68.3811442  47.3065163  42.5554153  67.6887099
  47.7401669  42.4629442  68.5370153  48.0196743  42.5311654  67.0507115
  36.2198213  43.7738152  64.8707832  37.0138812  43.2788472  64.6690407
  35.5089906  43.2456015  64.5075538  41.0393058  46.1556247  69.2220200
  41.0930080  46.7247184  69.9897916  40.1707839  46.3258132  68.8574237
  32.5280977  37.9181234  60.9467585  31.5978565  37.8565689  61.1637547
  32.6238449  37.3957186  60.1504226  32.4466526  34.4436046  63.5345827
  32.7073343  35.3581380  63.4254987  33.2683698  33.9760489  63.6842439
  33.9191451  35.8573804  70.7044651  34.5914504  35.6491166  70.0557300
  33.0921238  35.6595890  70.2649883  48.1680712  42.5977854  70.2219985
  48.3616602  43.5023664  70.4679260  48.0681330  42.1385273  71.0558570
  39.8217023  32.4835744  72.7210312  39.1744938  33.1825694  72.6274788
  40.5918038  32.9171888  73.0886560  43.2295821  42.7484597  75.7960865
  43.0781327  42.5195148  74.8790949  43.2200500  43.7055198  75.8092210
  39.9981157  40.3216509  70.7807132  40.9273217  40.4727669  70.6076099
  39.5772187  40.4100530  69.9255778  38.7969489  44.3467174  68.5505669
  38.6580575  43.9785958  69.4231608  38.0084085  44.8614813  68.3789627
  39.3917641  49.4476270  59.8931206  39.5669397  48.9764313  60.7076829
  38.7050429  50.0742036  60.1212467  40.3474704  43.7248776  65.9394507
  40.0124537  43.6849546  66.8352157  39.8478650  43.0593492  65.4664917
  34.3218948  39.1316406  71.4647088  34.1838746  38.3996645  72.0658627
  35.2323872  39.0425307  71.1831276  43.2833896  41.0704811  56.2131567
  42.6663067  40.3451639  56.1164620  42.8150384  41.8314171  55.8698641
  36.9501249  38.8436366  70.9530768  37.6600867  38.2029558  70.9117386
  36.9070557  39.0949261  71.8756949  44.9388028  45.7803719  73.8737347
  44.8800574  45.0962939  73.2067930  45.3407546  46.5222709  73.4217973
  35.6630183  35.8301584  72.7726407  35.1267540  35.3792322  73.4248004
  35.0746891  35.9647493  72.0296872  33.9578726  52.5965633  66.6671066
  34.1975325  53.2284157  67.3450085  33.1147923  52.2453673  66.9536425
  35.0732442  35.2890235  55.3352871  34.1961908  35.1679036  54.9715118
  35.5490195  34.4976313  55.0831760  44.9405435  43.7443303  72.1051327
  44.0532214  43.4069225  72.2277726  45.5103986  43.0126334  72.3420092
  26.5934582  40.0767395  65.4294378  27.2805622  39.7629125  64.8415394
  26.4382711  40.9808759  65.1561630  31.3969304  34.9657591  69.8579402
  31.3127493  34.3583261  69.1229812  30.5752011  35.4566610  69.8588898
  38.4706588  48.4044755  69.0712570  38.3976760  49.2099727  69.5831875
  38.0283981  48.6036721  68.2460591  38.2596368  47.6416525  62.5815392
  37.4763890  48.1838206  62.6753616  38.9589113  48.1590505  62.9809633
  41.5693018  33.4511155  65.2249597  42.0661718  32.6981117  64.9050667
  40.7979999  33.4875472  64.6592806  49.4222775  39.1551520  66.8667889
  49.4112652  40.0376236  66.4961822  48.5540155  38.8023071  66.6722426
  40.9305272  48.3031589  71.2270729  41.6433244  48.9379054  71.1546630
  40.4395300  48.3995455  70.4110731  42.6522799  42.2082842  62.7988020
  41.7179077  42.3284305  62.6292725  42.8299467  41.3055309  62.5348030
  38.1527987  35.5928538  64.9521282  37.7825774  35.0399578  65.6402187
  38.6487079  34.9886671  64.3996282  46.0395350  38.0500161  63.3338055
  46.5055802  38.8828153  63.2598357  46.4902851  37.5845143  64.0383313
  35.9817185  46.0526033  72.0476300  36.6826645  46.6862516  72.2005694
  35.5112300  46.3940764  71.2871939  44.1071581  44.3943983  60.3324207
  44.3831425  44.2800577  61.2418081  43.2376080  43.9961468  60.2936380
  44.0112013  30.4180748  67.3728956  43.0975093  30.6484975  67.5411163
  44.4405114  30.5019192  68.2242988  43.7818471  38.6070640  69.8728850
  43.1289922  38.8546548  69.2181303  44.1598851  37.7934779  69.5391327
  40.7425645  48.6430334  63.9757020  40.9248040  47.8251989  64.4384773
  41.5658631  48.8598026  63.5381910  41.0767811  47.5698519  61.2372069
  41.6055577  47.0590973  60.6242231  41.3396030  47.2541049  62.1017602
  39.8306044  39.3490451  76.3594887  39.1546681  39.2484581  77.0297262
  40.6533678  39.1929665  76.8230884  31.5784903  45.5862388  68.9807402
  32.1638340  44.8406076  69.1135306  31.3809742  45.8966345  69.8644066
  34.4323559  48.6213635  63.9969845  33.7633934  49.1059763  63.5133885
  34.2936428  48.8682856  64.9113223  26.1702558  38.1567988  67.7011845
  26.2086658  37.6231579  68.4948963  25.6642851  37.6303194  67.0822823
  38.5728827  50.6557379  70.5952503  39.1247135  50.8189000  71.3601588
  38.9135021  51.2461817  69.9232528  33.5493320  33.0032529  71.1974388
  33.6134647  33.8647360  70.7851785  33.4860441  32.3906530  70.4646746
  33.0245593  35.0755661  74.8447422  33.6517632  34.6932739  75.4584946
  32.1673512  34.8569863  75.2103114  43.4239701  45.4818636  76.4501157
  43.9679605  46.0948595  75.9556112  42.8426546  46.0398215  76.9668170
  29.8011136  36.8832090  60.7765777  30.0964577  35.9742769  60.7232830
  28.8999171  36.8619830  60.4546779  41.7097214  48.6039354  67.5816185
  41.5848354  47.8029094  67.0727131  42.3676306  49.0985548  67.0930155
  33.3305383  34.9588087  66.7593325  32.6091968  35.5724055  66.6200799
  34.1198638  35.4945852  66.6809971  43.7732123  46.4048374  69.2095735
  42.8262458  46.2853726  69.1374062  44.1214896  45.5170873  69.2921997
  36.1331696  32.2942513  73.0333977  36.6566098  32.5404810  73.7960286
  35.9144029  33.1262548  72.6137114  31.5298977  34.5646188  60.9005102
  31.2011683  33.6843567  60.7180208  31.8838348  34.5093857  61.7881491
  40.7778556  46.2001091  65.4100087  40.6303519  45.2717798  65.5907658
  41.6032050  46.2221181  64.9257163  34.6440800  34.8519158  61.2680580
  34.9836873  35.3805079  60.5459188  35.0912921  35.1899564  62.0439146
  44.3812678  47.0229649  66.4964960  45.3059225  46.8172511  66.3589411
  44.2127981  46.7746051  67.4054302  37.3384241  33.2356209  70.7183648
  36.9981062  32.4364022  71.1204328  36.6323248  33.5357919  70.1460481
  37.9900713  30.3205521  69.1710971  38.8126782  29.8465999  69.0489861
  38.2338777  31.0996005  69.6709657  36.6308948  33.3493779  59.4673872
  37.3517310  33.7275032  58.9637589  36.0074252  34.0682656  59.5708850
  40.7740070  34.0538928  60.4032205  40.9903685  34.9363566  60.1021033
  40.2934138  33.6625142  59.6737847  35.5139292  37.0124642  66.9802949
  35.3683873  37.3264945  67.8727231  35.0364495  37.6309542  66.4273848
  37.3735675  34.0027190  67.0283839  37.3597243  33.1068283  66.6916137
  38.0908103  34.0097853  67.6622125  39.2261805  34.4364530  69.0736966
  38.9679583  35.3581600  69.0721297  38.6946846  34.0394964  69.7637430
  44.1707994  47.5415317  61.8527052  44.3444872  46.9761739  61.1000904
  44.6636885  48.3416212  61.6706542  29.9884954  39.5529986  69.9190610
  29.4438422  40.3289794  70.0510885  30.8664304  39.9000790  69.7609732
  36.7772571  32.8841570  62.2971409  36.8988482  31.9558216  62.4962296
  36.4874613  32.8980256  61.3849724  39.6463761  30.5696480  65.4338129
  39.6685458  30.6335813  64.4790108  40.0631820  29.7300989  65.6278635
  50.0247385  40.3051740  63.4717351  50.4678531  39.5559065  63.0736475
  49.1473896  40.2961876  63.0891083  45.1583167  46.8582081  58.9523950
  45.8534071  47.4788774  59.1711265  45.5006317  46.0077433  59.2276328
  30.7750976  38.6799882  72.8120767  30.0332712  38.8282518  73.3985398
  30.4543720  38.9408148  71.9487517  47.0574590  44.3081787  60.4811281
  47.5825914  44.6469060  59.7560601  46.9696942  43.3728802  60.2974415
  38.7194638  48.2215860  72.6101157  39.0281765  47.9765007  73.4823857
  39.5170121  48.4262499  72.1220028  38.7415251  50.3753770  64.8406534
  38.3020241  49.8830149  65.5339391  39.4923367  49.8326738  64.5998609
  31.2207590  46.5665311  64.8431162  32.0465609  46.2669083  64.4629806
  30.8701642  45.7972933  65.2920951  36.1889123  45.9191779  66.9128836
  35.5669132  45.2562484  66.6131063  36.8593990  45.9452911  66.2302483
  29.4216195  44.4851637  65.8020096  28.5848103  44.0573812  65.6204097
  29.3939840  44.6784081  66.7390887  36.2613650  34.3973567  76.5061342
  36.3101806  35.2735690  76.1239111  36.8036164  33.8550960  75.9332985
  46.7468496  44.9414690  75.7862479  45.9564040  44.9238829  75.2466978
  46.5101850  45.4802984  76.5411515  46.8666371  41.7907157  73.0995207
  46.9164376  41.6257164  74.0410730  46.7580294  40.9234416  72.7093088
  35.7502630  44.4695703  60.3887296  35.8990750  45.1531167  59.7353969
  36.5569073  44.4500793  60.9036752  44.1570133  37.7738085  74.4154514
  45.0579996  37.6344550  74.1238512  44.2318108  37.9392540  75.3552691
  38.4912939  35.1504940  73.2607700  37.6216248  35.4438506  72.9890289
  38.7272419  35.7345385  73.9814964  48.3684568  44.2104098  73.3437229
  48.0769376  44.5734079  74.1800690  47.7556699  43.4971107  73.1650561
  49.5680250  41.7756978  65.8639799  50.4027141  42.2146782  66.0277359
  49.7039379  41.2995631  65.0448045  46.6171756  39.3336713  71.8117287
  47.0925878  39.5264359  71.0036138  45.6937321  39.3895899  71.5660670
  33.5055263  40.4960880  61.3948365  33.2601305  39.5923210  61.5928575
  33.6751177  40.4978031  60.4527843  41.1951972  31.3684557  70.7773121
  41.7133916  32.1045583  70.4519609  40.8407105  31.6748550  71.6119880
  32.7750910  36.2289238  58.8934526  32.0820155  36.3033593  58.2374562
  32.5302662  35.4649581  59.4156043  41.4464567  27.7884839  66.2974017
  41.7266320  27.1208028  66.9234444  42.2315174  27.9813935  65.7848681
  39.2498035  46.9643833  57.8599044  38.6772002  47.5834020  57.4069515
  39.8230829  47.5143195  58.3938965  45.3173425  36.2102473  70.0445592
  46.2690848  36.3100571  70.0657816  45.1476875  35.4180742  70.5543677
  43.3387804  33.2958056  70.2304993  42.7437737  33.5763069  69.5351482
  43.0537501  33.7851957  71.0021734  42.4695295  47.2480983  58.9907626
  43.4025968  47.1826545  59.1940501  42.3818508  48.0837250  58.5322158
  45.0983312  46.5646853  55.9511573  45.0196943  46.2306717  56.8447331
  45.9192978  47.0568621  55.9503046  47.7961503  39.4308593  69.1587892
  47.7637823  38.4924593  69.3447576  48.4062126  39.5092629  68.4253717
  39.6344834  38.3004646  55.2015096  40.5803938  38.1710854  55.2703514
  39.2559079  37.5619308  55.6784524  47.9455991  36.2219636  69.2046175
  47.4295040  35.4378093  69.0176104  48.8295940  35.8938353  69.3692695
  45.6066718  29.9660652  65.1641988  45.4091539  29.6575740  66.0485320
  46.2166424  30.6922291  65.2939918  53.6138053  40.4924600  68.2993929
  54.3441441  40.2309888  68.8601632  53.0044998  39.7553322  68.3395997
  51.6953350  38.6332462  68.8968380  50.9686513  38.4988427  68.2884872
  51.2800637  38.9409291  69.7025098  39.5183526  42.3522392  76.6615753
  40.4386536  42.5300991  76.8555800  39.4833109  41.4078437  76.5095452
  37.8187751  36.2254622  55.1369981  36.9119206  35.9287735  55.2132695
  38.0963732  35.9284440  54.2704268  28.7365691  37.5460986  65.5869028
  28.4168476  36.6926294  65.2943402  28.1899119  37.7609564  66.3426995
  32.5145599  40.2623427  69.3038534  32.7331608  41.1940534  69.3226568
  32.9271373  39.9031401  70.0893338  39.4349817  30.7691512  61.2914223
  38.6250545  30.4238597  61.6669469  40.1234233  30.4599056  61.8801834
  41.3640365  29.8469559  62.9138519  41.9171403  30.2665012  63.5728542
  41.6010451  28.9205307  62.9561475  37.3873464  35.8356632  78.6941283
  37.2870191  36.7850989  78.6253374  37.1695006  35.5074871  77.8217353
  36.5886535  33.0841557  55.2781960  37.4505699  33.4096456  55.5377778
  36.7736880  32.2973053  54.7655026  28.6053951  41.1663897  67.5562149
  27.9117423  40.7517850  67.0432104  29.3526942  41.2084434  66.9595568
  44.7419172  31.9570084  62.4217183  44.1617841  32.6154888  62.0395236
  44.4755105  31.1347428  62.0104601  43.1922738  31.3575142  64.6238504
  43.6922517  31.4691676  63.8152823  43.8358346  31.0536194  65.2639312
  37.2504734  39.2653771  77.5106345  36.7671816  40.0654131  77.7170234
  37.3365673  39.2761716  76.5573789  30.5190694  41.0982151  65.4328164
  30.4961382  41.1969838  64.4810047  30.8291330  41.9447302  65.7545330
  33.1778072  43.1558306  69.5474779  34.1321325  43.1242248  69.4804710
  32.9790595  42.6948930  70.3625004  33.7677454  41.7259422  72.1145576
  34.5870343  42.2203501  72.1380413  34.0414261  40.8091390  72.0863144
  43.5244050  34.1170174  61.4773532  42.6369905  34.4019825  61.2593726
  43.9398039  33.9563938  60.6300809  46.8758586  34.1416695  65.1927871
  47.6518976  34.6313148  65.4652488  46.1506720  34.5674749  65.6499740
  49.3131145  34.8544314  66.2501812  49.9075635  34.6140050  65.5395120
  49.3857728  34.1351445  66.8775348  31.5328300  48.6977925  66.5644976
  31.3982768  47.9378326  65.9982974  31.1160363  49.4218825  66.0973765
  42.6687263  43.8814849  55.5721552  43.3723113  44.0864851  56.1879207
  41.9449912  44.4491611  55.8370635  43.4985074  39.6324710  61.6923822
  43.4420275  40.0893262  60.8531454  44.0513416  38.8715395  61.5146665
  47.3089880  35.4214442  62.5173941  47.0526814  35.0211078  63.3482149
  46.6842748  36.1358236  62.3924081  51.6202217  38.1610515  65.0245233
  51.0601775  38.2303705  65.7976795  51.0145721  37.9851500  64.3044729
  34.6897426  49.5947242  66.7763419  34.5729810  50.5392675  66.6742109
  33.8689872  49.2920804  67.1649218  44.5773961  44.3197378  57.6220012
  45.4119565  43.8878577  57.4397487  44.4158304  44.1479392  58.5496906
  44.2319853  40.8229491  58.9876351  44.1768657  40.6573763  58.0464795
  43.6065908  41.5305524  59.1438541  29.0212368  36.0597556  72.8137773
  29.6671232  35.5496510  73.3024998  28.8129519  36.7966237  73.3881199
  41.5465760  43.1278403  78.3129914  42.4156920  43.3019056  77.9516549
  41.0672512  43.9472820  78.1905643  37.5415978  30.3237600  58.5661669
  37.5294648  31.2679440  58.7229940  38.4339400  30.1407746  58.2721131
  35.7151940  50.2475504  69.9919347  36.6179187  50.2799115  70.3085842
  35.4889310  49.3175955  70.0065683  37.4705542  49.0006491  66.6529426
  36.5201173  49.0008352  66.5393798  37.7738029  48.2539225  66.1365461
  41.3568098  26.9180377  62.8207606  40.5900494  26.3638864  62.9664289
  41.7678803  26.9902246  63.6821758  33.3609859  33.2065173  76.9112788
  34.2241320  32.8501978  77.1216112  32.7875270  32.8679068  77.5988192
  53.2058236  54.8367029  67.7175189  53.8436646  54.7173777  67.0138529
  53.0879079  55.7847873  67.7763141  50.0147942  54.7894457  67.6536713
  49.6766454  54.6735522  66.7657248  50.8837710  54.3885622  67.6337719
  45.8734758  56.6429934  63.6433604  45.3099623  56.5519871  62.8749892
  45.7587153  55.8229838  64.1236097  43.4199190  58.1381125  66.4817825
  44.2120482  57.7971950  66.0664124  43.6595840  58.2476100  67.4019978
  51.4534317  60.3100901  58.9548069  50.8022296  60.8954982  58.5682083
  52.2478679  60.8407096  59.0143107  45.3789944  57.3990039  59.3535203
  46.1520820  56.8519026  59.2148079  45.7315343  58.2634288  59.5649665
  48.1431193  56.1043269  69.1503462  48.7394765  55.8799292  68.4360425
  48.2006165  55.3628015  69.7528910  47.7156222  53.5582705  56.9853653
  47.9681742  53.0364226  56.2237116  46.7780781  53.3948850  57.0880337
  52.7599504  52.5618483  64.7928397  53.5462594  52.1437906  64.4418814
  53.0238209  53.4664575  64.9610045  52.9309582  57.9991333  59.4917053
  52.2955415  58.0725960  60.2037958  52.6006988  58.5884932  58.8136133
  58.1607931  52.4993716  65.6961375  58.8933103  51.9292933  65.9299205
  57.4047287  52.1115317  66.1367881  47.4352510  55.4610811  59.1878028
  47.3188768  54.7855714  59.8559113  47.5454770  54.9743185  58.3710181
  49.7784051  54.9220958  62.8924718  49.4142258  54.3951579  63.6037639
  50.6351167  54.5319427  62.7191203  55.6833352  46.2115290  70.1555984
  55.3516677  47.0810701  69.9317199  55.0878965  45.8951574  70.8350014
  49.4189538  49.9510857  57.8886066  49.5863941  50.8191094  58.2556537
  49.2286707  50.1138139  56.9647355  52.1764871  58.4127836  69.5551896
  51.8765594  59.3152875  69.4467704  51.8315931  58.1460020  70.4073049
  45.6277353  54.8641633  65.5888601  44.7027849  54.7317847  65.7966293
  45.8761766  55.6435852  66.0858543  55.5762015  50.9310377  67.2349334
  54.6678892  50.8625785  66.9408095  55.5249611  51.4082321  68.0631159
  49.3978759  52.4068515  58.8732733  49.2778384  52.8525566  59.7118213
  48.7031347  52.7553833  58.3146271  42.9886164  54.5074907  66.4232390
  43.1178545  54.7609386  67.3371802  42.3083615  55.1002615  66.1037045
  47.1585651  65.1772157  62.5222864  47.0809681  66.1279982  62.6011345
  46.5547295  64.8318029  63.1797790  57.4423662  49.1326815  69.0127208
  56.7998042  49.4259348  68.3667002  56.9378590  49.0179735  69.8180404
  55.0963825  52.8789988  59.7013067  56.0081681  53.1117375  59.5260764
  54.5873472  53.4627032  59.1388146  47.9049253  55.1585475  74.7402198
  48.6463938  55.6970519  74.4637022  47.1986239  55.7851764  74.8973750
  49.7335663  52.2387223  70.7107916  50.5796858  52.6626636  70.8542565
  49.6734301  51.5820847  71.4046480  53.7033408  57.8615807  67.0926648
  53.0742270  58.0261521  66.3902716  53.3159070  58.2757416  67.8637612
  57.5822639  58.7970244  64.4471012  56.8973678  59.1769146  63.8968045
  57.6666489  59.4065571  65.1802960  52.8835108  49.8991591  72.3689090
  52.6396040  50.6533652  71.8323366  53.1595039  50.2776939  73.2036337
  54.8373571  56.4430203  71.0466356  55.0490466  57.0861963  70.3700737
  54.7903319  55.6092520  70.5788286  52.4399800  49.0548024  67.9502928
  51.5784279  49.3529278  68.2419665  52.4662235  49.2718423  67.0183960
  49.2561369  57.5990215  64.3576733  49.7199715  57.8777918  63.5681356
  48.9918168  56.6973659  64.1749824  46.1485450  57.1461696  67.2956497
  46.7186808  57.5748965  66.6573981  46.7393562  56.8644281  67.9940682
  48.1930255  53.7213367  61.1666299  48.8954299  54.1734411  61.6340225
  47.8610884  53.0797186  61.7946192  46.6410617  52.3125124  75.5417508
  46.0109278  52.9941404  75.7752905  46.5346705  52.2008205  74.5970646
  41.9355589  51.9796920  66.4683432  41.1454643  52.2354448  65.9923543
  42.4266837  52.7945258  66.5735473  43.8870335  52.3441499  63.4266909
  43.0901498  52.4560193  63.9450405  43.6595927  52.6828151  62.5607799
  40.2193292  52.2327410  68.8998423  40.4701331  53.1174420  69.1655999
  40.7552841  52.0532012  68.1273515  64.0425392  55.6640907  65.5673684
  63.2889100  55.0948305  65.4117689  64.1772933  55.6303572  66.5144319
  49.4324020  60.5354310  61.2428404  49.2969695  61.3805845  61.6713252
  49.9733833  60.7373587  60.4794338  45.9191360  46.6145889  77.9042759
  45.5258305  46.0612088  78.5790403  46.7357500  46.9256468  78.2949277
  42.8853417  58.0529748  61.8156329  43.3977938  58.8472998  61.9661894
  43.5376130  57.3556038  61.7489930  44.6948302  61.1695504  63.8979082
  44.8714930  62.0913469  63.7100066  45.4905136  60.8553923  64.3273462
  48.8359321  48.0303769  75.4963016  49.5769034  48.6310922  75.4167478
  49.0677244  47.2881406  74.9381058  43.9800659  53.2160136  73.7741245
  43.8654174  52.3145393  74.0748344  43.1245176  53.4623833  73.4226062
  45.8179618  62.6873678  69.8989424  46.3687043  62.5590741  69.1266418
  44.9791094  62.9868567  69.5484317  52.7816484  44.0584872  69.7727297
  52.4380753  44.9486513  69.6966408  53.1495446  43.8686529  68.9096882
  40.8502334  56.3818402  62.5915899  41.6877556  56.7915410  62.3749607
  41.0280602  55.4417844  62.5616093  52.7466766  54.0493483  58.2799732
  52.2313390  54.8198087  58.5188120  52.4744075  53.3758619  58.9032794
  50.3313877  48.8943183  63.3384971  49.4755474  48.5050034  63.1590609
  50.7440829  48.9735144  62.4784756  51.8613024  46.4289527  67.7376531
  51.3577820  46.3919662  66.9244336  52.1543631  47.3382269  67.7973187
  48.1055910  46.5128256  66.7442712  48.9708907  46.3171065  66.3848602
  48.1733419  46.2838608  67.6712069  57.7201040  56.8025837  60.2152906
  56.9430483  56.4636997  59.7708068  58.3992521  56.8078460  59.5407871
  52.5353070  51.9220575  60.1059514  52.2303205  52.2366724  60.9569657
  53.4883512  52.0001995  60.1486847  50.9799501  58.0810798  61.7552468
  50.4520863  57.3463558  61.4425705  50.4787004  58.8585474  61.5092436
  55.9592347  56.2759819  66.8719514  55.3016022  56.9659080  66.9599642
  56.7632747  56.6656250  67.2153500  45.7118229  48.7430464  64.1159079
  46.2861981  48.5205646  63.3832272  46.2989211  48.8119159  64.8687680
  54.7697806  54.6304191  64.9223456  55.2829688  55.2634183  65.4245165
  55.4199030  54.0305387  64.5566816  46.0387816  50.7734925  58.1354964
  45.2025128  51.1109612  58.4564239  45.8992586  50.6383905  57.1982101
  48.0140897  45.6171713  62.8434149  47.3605309  45.3020730  62.2190763
  47.9721371  44.9947454  63.5693971  49.1252102  55.8991008  54.7587441
  48.2179163  55.6680262  54.9578590  49.6223134  55.1028628  54.9461422
  52.0320180  64.6088515  57.6784127  51.3581879  64.9120212  58.2869085
  52.4186002  65.4117596  57.3289584  51.2478637  52.1053647  67.1681796
  50.3301198  52.3268594  67.0103484  51.6638781  52.1799957  66.3093503
  52.0313685  53.5045062  62.2984476  52.7785504  54.0166460  61.9891598
  52.3005274  53.1829115  63.1588870  50.3040335  56.0003603  59.2811431
  49.3951554  55.7162636  59.3783900  50.3335419  56.4202682  58.4214738
  55.5359602  59.6110193  63.0502598  55.0821930  58.7701103  63.1067789
  54.9053569  60.2471591  63.3877378  54.4792522  50.5402179  64.2803266
  53.7415279  50.0279565  64.6113508  54.7319296  50.1002560  63.4686543
  53.9792542  61.4486689  63.9852416  54.2715516  62.0091746  63.2664782
  54.4891162  61.7415250  64.7405575  54.5804149  43.3178431  64.8745035
  54.8863026  42.4575794  64.5870950  55.3056754  43.9096051  64.6744029
  40.8728505  53.7209117  63.2626633  40.6752905  53.1278478  62.5377699
  40.3175169  53.4161327  63.9802572  48.8525229  53.6132224  65.3821226
  48.9073839  52.6606060  65.3063703  48.0416431  53.7691663  65.8662524
  50.0016423  57.5412347  56.6199509  49.5635853  56.8248206  56.1605147
  50.7426864  57.7688462  56.0584601  46.7917589  52.2309283  63.1411605
  45.9785454  52.5303454  63.5476797  47.2876583  51.8364972  63.8586087
  48.9426167  62.2267040  65.0745870  48.9002346  62.4527887  64.1454402
  49.8588866  61.9930415  65.2231671  52.3891801  52.6951108  71.9726499
  52.7441188  52.9222581  72.8320965  53.0363932  53.0269485  71.3503754
  58.1189538  55.8169544  62.6775828  57.9807436  56.0071140  61.7497017
  57.7625756  56.5788927  63.1343879  46.2831664  49.8027639  68.7572840
  46.9231043  49.6616398  68.0595803  45.4509194  49.5162152  68.3811442
  58.1458917  57.8846071  67.6887099  58.5795424  57.7921360  68.5370153
  58.8590498  57.8603571  67.0507115  47.0591968  59.1030069  64.8707832
  47.8532566  58.6080390  64.6690407  46.3483660  58.5747933  64.5075538
  43.3674731  53.2473151  60.9467585  42.4372319  53.1857607  61.1637547
  43.4632203  52.7249104  60.1504226  43.2860280  49.7727964  63.5345827
  43.5467097  50.6873297  63.4254987  44.1077452  49.3052407  63.6842439
  44.7585205  51.1865721  70.7044651  45.4308259  50.9783083  70.0557300
  43.9314992  50.9887807  70.2649883  50.6610777  47.8127662  72.7210312
  50.0138693  48.5117612  72.6274788  51.4311793  48.2463806  73.0886560
  50.8374912  55.6508427  70.7807132  51.7666972  55.8019587  70.6076099
  50.4165942  55.7392448  69.9255778  49.6363244  59.6759091  68.5505669
  49.4974329  59.3077876  69.4231608  48.8477840  60.1906731  68.3789627
  50.2311396  64.7768188  59.8931206  50.4063151  64.3056231  60.7076829
  49.5444184  65.4033954  60.1212467  51.1868459  59.0540694  65.9394507
  50.8518291  59.0141464  66.8352157  50.6872404  58.3885410  65.4664917
  45.1612703  54.4608324  71.4647088  45.0232501  53.7288563  72.0658627
  46.0717626  54.3717224  71.1831276  54.1227650  56.3996728  56.2131567
  53.5056821  55.6743557  56.1164620  53.6544139  57.1606089  55.8698641
  47.7895003  54.1728283  70.9530768  48.4994622  53.5321476  70.9117386
  47.7464312  54.4241178  71.8756949  46.5023937  51.1593501  72.7726407
  45.9661294  50.7084240  73.4248004  45.9140646  51.2939410  72.0296872
  44.7972481  67.9257551  66.6671066  45.0369079  68.5576075  67.3450085
  43.9541677  67.5745591  66.9536425  45.9126196  50.6182153  55.3352871
  45.0355663  50.4970954  54.9715118  46.3883949  49.8268231  55.0831760
  37.4328336  55.4059312  65.4294378  38.1199376  55.0921043  64.8415394
  37.2776465  56.3100677  65.1561630  42.2363059  50.2949509  69.8579402
  42.1521247  49.6875179  69.1229812  41.4145765  50.7858527  69.8588898
  49.0990122  62.9708443  62.5815392  48.3157644  63.5130123  62.6753616
  49.7982868  63.4882423  62.9809633  52.4086772  48.7803073  65.2249597
  52.9055472  48.0273035  64.9050667  51.6373754  48.8167389  64.6592806
  60.2616530  54.4843438  66.8667889  60.2506406  55.3668154  66.4961822
  59.3933909  54.1314989  66.6722426  53.4916553  57.5374760  62.7988020
  52.5572832  57.6576222  62.6292725  53.6693222  56.6347227  62.5348030
  48.9921741  50.9220456  64.9521282  48.6219529  50.3691496  65.6402187
  49.4880834  50.3178589  64.3996282  56.8789105  53.3792079  63.3338055
  57.3449557  54.2120071  63.2598357  57.3296605  52.9137061  64.0383313
  54.9465336  59.7235900  60.3324207  55.2225180  59.6092495  61.2418081
  54.0769834  59.3253385  60.2936380  54.8505767  45.7472666  67.3728956
  53.9368847  45.9776893  67.5411163  55.2798869  45.8311110  68.2242988
  54.6212226  53.9362558  69.8728850  53.9683676  54.1838465  69.2181303
  54.9992606  53.1226696  69.5391327  51.5819400  63.9722251  63.9757020
  51.7641794  63.1543907  64.4384773  52.4052386  64.1889943  63.5381910
  51.9161565  62.8990436  61.2372069  52.4449332  62.3882891  60.6242231
  52.1789785  62.5832967  62.1017602  42.4178658  60.9154306  68.9807402
  43.0032095  60.1697994  69.1135306  42.2203496  61.2258262  69.8644066
  45.2717313  63.9505553  63.9969845  44.6027688  64.4351681  63.5133885
  45.1330183  64.1974773  64.9113223  37.0096313  53.4859906  67.7011845
  37.0480412  52.9523497  68.4948963  36.5036605  52.9595111  67.0822823
  44.3887075  48.3324446  71.1974388  44.4528401  49.1939277  70.7851785
  44.3254195  47.7198448  70.4646746  43.8639347  50.4047579  74.8447422
  44.4911386  50.0224656  75.4584946  43.0067266  50.1861781  75.2103114
  40.6404890  52.2124008  60.7765777  40.9358331  51.3034686  60.7232830
  39.7392926  52.1911747  60.4546779  52.5490969  63.9331272  67.5816185
  52.4242108  63.1321012  67.0727131  53.2070060  64.4277465  67.0930155
  44.1699137  50.2880005  66.7593325  43.4485723  50.9015972  66.6200799
  44.9592393  50.8237769  66.6809971  46.9725451  47.6234431  73.0333977
  47.4959852  47.8696728  73.7960286  46.7537784  48.4554466  72.6137114
  42.3692732  49.8938106  60.9005102  42.0405438  49.0135485  60.7180208
  42.7232102  49.8385774  61.7881491  51.6172311  61.5293008  65.4100087
  51.4697273  60.6009716  65.5907658  52.4425804  61.5513099  64.9257163
  45.4834555  50.1811075  61.2680580  45.8230627  50.7096997  60.5459188
  45.9306675  50.5191482  62.0439146  55.2206432  62.3521567  66.4964960
  56.1452980  62.1464428  66.3589411  55.0521736  62.1037968  67.4054302
  48.1777996  48.5648126  70.7183648  47.8374816  47.7655939  71.1204328
  47.4717002  48.8649837  70.1460481  48.8294468  45.6497439  69.1710971
  49.6520537  45.1757917  69.0489861  49.0732531  46.4287922  69.6709657
  47.4702702  48.6785697  59.4673872  48.1911065  49.0566950  58.9637589
  46.8468006  49.3974574  59.5708850  51.6133825  49.3830846  60.4032205
  51.8297439  50.2655484  60.1021033  51.1327892  48.9917059  59.6737847
  46.3533046  52.3416559  66.9802949  46.2077627  52.6556862  67.8727231
  45.8758250  52.9601460  66.4273848  48.2129429  49.3319107  67.0283839
  48.1990998  48.4360201  66.6916137  48.9301857  49.3389771  67.6622125
  50.0655560  49.7656447  69.0736966  49.8073338  50.6873518  69.0721297
  49.5340600  49.3686882  69.7637430  55.0101749  62.8707235  61.8527052
  55.1838626  62.3053657  61.1000904  55.5030640  63.6708129  61.6706542
  40.8278708  54.8821904  69.9190610  40.2832177  55.6581712  70.0510885
  41.7058058  55.2292708  69.7609732  47.6166325  48.2133488  62.2971409
  47.7382236  47.2850134  62.4962296  47.3268367  48.2272173  61.3849724
  50.4857516  45.8988398  65.4338129  50.5079212  45.9627731  64.4790108
  50.9025575  45.0592907  65.6278635  60.8641140  55.6343658  63.4717351
  61.3072286  54.8850983  63.0736475  59.9867650  55.6253794  63.0891083
  55.9976921  62.1873999  58.9523950  56.6927826  62.8080692  59.1711265
  56.3400071  61.3369350  59.2276328  41.6144730  54.0091800  72.8120767
  40.8726466  54.1574435  73.3985398  41.2937475  54.2700066  71.9487517
  57.8968344  59.6373705  60.4811281  58.4219668  59.9760977  59.7560601
  57.8090697  58.7020720  60.2974415  49.5809005  65.7045688  64.8406534
  49.1413995  65.2122066  65.5339391  50.3317122  65.1618655  64.5998609
  42.0601344  61.8957229  64.8431162  42.8859364  61.5961001  64.4629806
  41.7095396  61.1264851  65.2920951  47.0282877  61.2483697  66.9128836
  46.4062886  60.5854402  66.6131063  47.6987744  61.2744829  66.2302483
  40.2609949  59.8143555  65.8020096  39.4241857  59.3865729  65.6204097
  40.2333594  60.0075998  66.7390887  47.1007405  49.7265485  76.5061342
  47.1495560  50.6027608  76.1239111  47.6429919  49.1842878  75.9332985
  46.5896384  59.7987620  60.3887296  46.7384504  60.4823085  59.7353969
  47.3962828  59.7792710  60.9036752  49.3306693  50.4796857  73.2607700
  48.4610003  50.7730423  72.9890289  49.5666173  51.0637302  73.9814964
  60.4074005  57.1048896  65.8639799  61.2420896  57.5438700  66.0277359
  60.5433133  56.6287549  65.0448045  44.3449017  55.8252798  61.3948365
  44.0995059  54.9215128  61.5928575  44.5144932  55.8269948  60.4527843
  52.0345727  46.6976474  70.7773121  52.5527671  47.4337501  70.4519609
  51.6800860  47.0040468  71.6119880  43.6144665  51.5581155  58.8934526
  42.9213910  51.6325510  58.2374562  43.3696417  50.7941499  59.4156043
  52.2858321  43.1176757  66.2974017  52.5660075  42.4499946  66.9234444
  53.0708928  43.3105852  65.7848681  50.0891790  62.2935751  57.8599044
  49.5165757  62.9125938  57.4069515  50.6624583  62.8435112  58.3938965
  56.1567179  51.5394391  70.0445592  57.1084602  51.6392488  70.0657816
  55.9870630  50.7472659  70.5543677  54.1781559  48.6249974  70.2304993
  53.5831491  48.9054987  69.5351482  53.8931256  49.1143875  71.0021734
  53.3089049  62.5772901  58.9907626  54.2419723  62.5118462  59.1940501
  53.2212262  63.4129168  58.5322158  55.9377066  61.8938771  55.9511573
  55.8590698  61.5598635  56.8447331  56.7586733  62.3860539  55.9503046
  58.6355257  54.7600510  69.1587892  58.6031577  53.8216511  69.3447576
  59.2455881  54.8384547  68.4253717  50.4738588  53.6296563  55.2015096
  51.4197693  53.5002772  55.2703514  50.0952833  52.8911225  55.6784524
  58.7849746  51.5511554  69.2046175  58.2688794  50.7670011  69.0176104
  59.6689694  51.2230270  69.3692695  56.4460473  45.2952569  65.1641988
  56.2485294  44.9867658  66.0485320  57.0560178  46.0214208  65.2939918
  62.5347104  53.9624380  68.8968380  61.8080268  53.8280345  68.2884872
  62.1194391  54.2701208  69.7025098  48.6581505  51.5546540  55.1369981
  47.7512961  51.2579653  55.2132695  48.9357486  51.2576358  54.2704268
  39.5759446  52.8752903  65.5869028  39.2562230  52.0218211  65.2943402
  39.0292874  53.0901481  66.3426995  43.3539353  55.5915344  69.3038534
  43.5725363  56.5232452  69.3226568  43.7665127  55.2323319  70.0893338
  50.2743571  46.0983430  61.2914223  49.4644299  45.7530514  61.6669469
  50.9627988  45.7890973  61.8801834  52.2034119  45.1761476  62.9138519
  52.7565158  45.5956930  63.5728542  52.4404206  44.2497224  62.9561475
  47.4280290  48.4133475  55.2781960  48.2899454  48.7388373  55.5377778
  47.6130634  47.6264971  54.7655026  39.4447706  56.4955815  67.5562149
  38.7511177  56.0809767  67.0432104  40.1920697  56.5376351  66.9595568
  55.5812926  47.2862001  62.4217183  55.0011595  47.9446806  62.0395236
  55.3148859  46.4639346  62.0104601  54.0316493  46.6867059  64.6238504
  54.5316271  46.7983594  63.8152823  54.6752101  46.3828112  65.2639312
  41.3584448  56.4274068  65.4328164  41.3355136  56.5261756  64.4810047
  41.6685085  57.2739219  65.7545330  44.0171826  58.4850224  69.5474779
  44.9715080  58.4534166  69.4804710  43.8184350  58.0240847  70.3625004
  44.6071208  57.0551340  72.1145576  45.4264097  57.5495418  72.1380413
  44.8808016  56.1383308  72.0863144  54.3637804  49.4462092  61.4773532
  53.4763659  49.7311742  61.2593726  54.7791793  49.2855855  60.6300809
  57.7152341  49.4708613  65.1927871  58.4912731  49.9605065  65.4652488
  56.9900475  49.8966667  65.6499740  60.1524899  50.1836232  66.2501812
  60.7469390  49.9431968  65.5395120  60.2251483  49.4643363  66.8775348
  42.3722055  64.0269843  66.5644976  42.2376523  63.2670244  65.9982974
  41.9554117  64.7510743  66.0973765  53.5081018  59.2106767  55.5721552
  54.2116868  59.4156769  56.1879207  52.7843667  59.7783528  55.8370635
  54.3378828  54.9616628  61.6923822  54.2814030  55.4185179  60.8531454
  54.8907171  54.2007312  61.5146665  58.1483634  50.7506360  62.5173941
  57.8920568  50.3502995  63.3482149  57.5236502  51.4650154  62.3924081
  62.4595972  53.4902433  65.0245233  61.8995530  53.5595622  65.7976795
  61.8539475  53.3143418  64.3044729  45.5291181  64.9239160  66.7763419
  45.4123565  65.8684593  66.6742109  44.7083627  64.6212722  67.1649218
  55.4167715  59.6489296  57.6220012  56.2513319  59.2170494  57.4397487
  55.2552058  59.4771309  58.5496906  55.0713607  56.1521409  58.9876351
  55.0162411  55.9865680  58.0464795  54.4459663  56.8597442  59.1438541
  39.8606122  51.3889473  72.8137773  40.5064986  50.8788427  73.3024998
  39.6523274  52.1258155  73.3881199  48.3809733  45.6529518  58.5661669
  48.3688403  46.5971358  58.7229940  49.2733155  45.4699663  58.2721131
  48.3099297  64.3298408  66.6529426  47.3594928  64.3300270  66.5393798
  48.6131783  63.5831143  66.1365461  52.1961852  42.2472295  62.8207606
  51.4294248  41.6930781  62.9664289  52.6072557  42.3194163  63.6821758
  44.2003613  48.5357090  76.9112788  45.0635075  48.1793895  77.1216112
  43.6269024  48.1970985  77.5988192  56.2183698  72.7281956  59.3535203
  56.9914574  72.1810943  59.2148079  56.5709097  73.5926206  59.5649665
  58.5549976  68.8874622  56.9853653  58.8075497  68.3656144  56.2237116
  57.6174535  68.7240768  57.0880337  58.2746265  70.7902728  59.1878028
  58.1582523  70.1147632  59.8559113  58.3848525  70.3035102  58.3710181
  60.2583293  65.2802775  57.8886066  60.4257695  66.1483011  58.2556537
  60.0680462  65.4430057  56.9647355  60.2372514  67.7360433  58.8732733
  60.1172139  68.1817483  59.7118213  59.5425102  68.0845750  58.3146271
  65.9357580  68.2081906  59.7013067  66.8475436  68.4409293  59.5260764
  65.4267227  68.7918950  59.1388146  59.0324010  69.0505285  61.1666299
  59.7348053  69.5026328  61.6340225  58.7004638  68.4089104  61.7946192
  54.7264089  67.6733417  63.4266909  53.9295253  67.7852111  63.9450405
  54.4989681  68.0120069  62.5607799  51.6896089  71.7110320  62.5915899
  52.5271311  72.1207328  62.3749607  51.8674356  70.7709762  62.5616093
  63.5860521  69.3785400  58.2799732  63.0707144  70.1490005  58.5188120
  63.3137829  68.7050536  58.9032794  61.1707632  64.2235101  63.3384971
  60.3149228  63.8341951  63.1590609  61.5834584  64.3027062  62.4784756
  63.3746824  67.2512492  60.1059514  63.0696960  67.5658642  60.9569657
  64.3277266  67.3293912  60.1486847  56.5511983  64.0722382  64.1159079
  57.1255735  63.8497563  63.3832272  57.1382966  64.1411076  64.8687680
  56.8781571  66.1026843  58.1354964  56.0418883  66.4401530  58.4564239
  56.7386340  65.9675823  57.1982101  58.8534651  60.9463631  62.8434149
  58.1999064  60.6312648  62.2190763  58.8115125  60.3239371  63.5693971
  59.9645856  71.2282926  54.7587441  59.0572918  70.9972179  54.9578590
  60.4616888  70.4320545  54.9461422  61.1434089  71.3295521  59.2811431
  60.2345309  71.0454554  59.3783900  61.1729173  71.7494599  58.4214738
  65.4197904  58.6470348  64.8745035  65.7256781  57.7867712  64.5870950
  66.1450509  59.2387969  64.6744029  51.7122260  69.0501035  63.2626633
  51.5146660  68.4570396  62.5377699  51.1568924  68.7453245  63.9802572
  60.8410177  72.8704264  56.6199509  60.4029607  72.1540123  56.1605147
  61.5820618  73.0980379  56.0584601  57.6311343  67.5601201  63.1411605
  56.8179209  67.8595372  63.5476797  58.1270338  67.1656890  63.8586087
  54.2068486  68.5765069  60.9467585  53.2766074  68.5149524  61.1637547
  54.3025958  68.0541022  60.1504226  54.1254035  65.1019882  63.5345827
  54.3860852  66.0165215  63.4254987  54.9471207  64.6344324  63.6842439
  64.9621405  71.7288646  56.2131567  64.3450576  71.0035474  56.1164620
  64.4937893  72.4898006  55.8698641  56.7519951  65.9474070  55.3352871
  55.8749417  65.8262871  54.9715118  57.2277704  65.1560149  55.0831760
  48.2722091  70.7351230  65.4294378  48.9593131  70.4212960  64.8415394
  48.1170220  71.6392595  65.1561630  51.4798645  67.5415926  60.7765777
  51.7752086  66.6326604  60.7232830  50.5786680  67.5203665  60.4546779
  53.2086486  65.2230023  60.9005102  52.8799192  64.3427402  60.7180208
  53.5625857  65.1677692  61.7881491  56.3228309  65.5102993  61.2680580
  56.6624382  66.0388914  60.5459188  56.7700430  65.8483399  62.0439146
  58.3096457  64.0077615  59.4673872  59.0304819  64.3858868  58.9637589
  57.6861761  64.7266492  59.5708850  62.4527579  64.7122764  60.4032205
  62.6691194  65.5947402  60.1021033  61.9721647  64.3208977  59.6737847
  58.4560080  63.5425405  62.2971409  58.5775991  62.6142051  62.4962296
  58.1662122  63.5564091  61.3849724  61.3251270  61.2280316  65.4338129
  61.3472967  61.2919649  64.4790108  61.7419329  60.3884824  65.6278635
  55.1842772  71.1544716  61.3948365  54.9388813  70.2507046  61.5928575
  55.3538686  71.1561866  60.4527843  54.4538419  66.8873073  58.8934526
  53.7607664  66.9617428  58.2374562  54.2090171  66.1233417  59.4156043
  63.1252076  58.4468674  66.2974017  63.4053829  57.7791863  66.9234444
  63.9102683  58.6397770  65.7848681  61.3132343  68.9588481  55.2015096
  62.2591447  68.8294689  55.2703514  60.9346588  68.2203143  55.6784524
  59.4975260  66.8838457  55.1369981  58.5906715  66.5871570  55.2132695
  59.7751241  66.5868276  54.2704268  50.4153200  68.2044821  65.5869028
  50.0955984  67.3510129  65.2943402  49.8686628  68.4193399  66.3426995
  61.1137325  61.4275347  61.2914223  60.3038054  61.0822432  61.6669469
  61.8021742  61.1182891  61.8801834  63.0427874  60.5053394  62.9138519
  63.5958912  60.9248847  63.5728542  63.2797960  59.5789142  62.9561475
  58.2674044  63.7425393  55.2781960  59.1293208  64.0680291  55.5377778
  58.4524389  62.9556889  54.7655026  66.4206681  62.6153919  62.4217183
  65.8405350  63.2738723  62.0395236  66.1542614  61.7931264  62.0104601
  65.2031559  64.7754010  61.4773532  64.3157414  65.0603660  61.2593726
  65.6185548  64.6147773  60.6300809  64.3474772  74.5398684  55.5721552
  65.0510622  74.7448687  56.1879207  63.6237421  75.1075446  55.8370635
  59.2203487  60.9821436  58.5661669  59.2082157  61.9263276  58.7229940
  60.1126909  60.7991581  58.2721131  63.0355607  57.5764212  62.8207606
  62.2688003  57.0222699  62.9664289  63.4466312  57.6486081  63.6821758
  31.5270728   1.1845316  54.4420495  32.1649138   1.0652064  53.7383835
  31.4091571   2.1326160  54.5008447  28.3360434   1.1372745  54.3782020
  27.9978946   1.0213809  53.4902555  29.2050203   0.7363910  54.3583026
  24.1947250   2.9908221  50.3678911  23.6312115   2.8998158  49.5995199
  24.0799645   2.1708125  50.8481403  28.8180217   2.2907596  60.3368225
  28.8068858   1.8960395  59.4648729  28.9800857   1.5573669  60.9301997
  21.7411682   4.4859413  53.2063131  22.5332974   4.1450237  52.7909431
  21.9808332   4.5954388  54.1265285  29.7746809   6.6579189  45.6793376
  29.1234789   7.2433269  45.2927389  30.5691172   7.1885384  45.7388413
  23.7002436   3.7468326  46.0780510  24.4733312   3.1997313  45.9393386
  24.0527835   4.6112575  46.2894971  25.5387479   5.0744708  59.2847409
  25.2477345   5.9790339  59.1694076  26.1744463   5.1161236  59.9991479
  26.4643685   2.4521557  55.8748769  27.0607258   2.2277579  55.1605732
  26.5218657   1.7106302  56.4774217  26.0368714  -0.0939008  43.7098960
  26.2894234  -0.6157487  42.9482423  25.0993273  -0.2572863  43.8125644
  31.0811997  -1.0903230  51.5173703  31.8675086  -1.5083807  51.1664120
  31.3450701  -0.1857138  51.6855352  31.2522074   4.3469621  46.2162360
  30.6167907   4.4204247  46.9283265  30.9219480   4.9363219  45.5381439
  36.4820424  -1.1527997  52.4206682  37.2145596  -1.7228780  52.6544511
  35.7259779  -1.5406396  52.8613187  25.7565003   1.8089098  45.9123335
  25.6401261   1.1334001  46.5804419  25.8667262   1.3221472  45.0955488
  28.0996543   1.2699245  49.6170024  27.7354751   0.7429866  50.3282946
  28.9563659   0.8797714  49.4436510  27.7402030  -3.7010855  44.6131373
  27.9076433  -2.8330619  44.9801844  27.5499200  -3.5383574  43.6892662
  30.4977364   4.7606124  56.2797203  30.1978087   5.6631162  56.1713010
  30.1528423   4.4938307  57.1318356  23.9489845   1.2119920  52.3133907
  23.0240342   1.0796135  52.5211599  24.1974258   1.9914140  52.8103850
  33.8974507  -2.7211336  53.9594640  32.9891385  -2.7895928  53.6653401
  33.8462103  -2.2439391  54.7876466  27.7191251  -1.2453198  45.5978039
  27.5990877  -0.7996147  46.4363520  27.0243840  -0.8967880  45.0391578
  21.3098656   0.8553194  53.1477697  21.4391037   1.1087673  54.0617108
  20.6296107   1.4480902  52.8282352  25.4798143  11.5250444  49.2468171
  25.4022173  12.4758269  49.3256651  24.8759787  11.1796316  49.9043097
  33.4176317  -0.7731725  46.4258374  34.3294174  -0.5404338  46.2506071
  32.9085965  -0.1894680  45.8633452  31.7017085   3.6492903  60.0619666
  32.1100441   3.2075314  59.3174298  30.9794347   3.0745531  60.3153859
  28.0548155  -1.4134490  57.4353223  28.9009350  -0.9895077  57.5787872
  27.9946793  -2.0700866  58.1291786  32.0245900   4.2094094  53.8171955
  31.3954762   4.3739808  53.1148023  31.6371562   4.6235703  54.5882919
  35.9035132   5.1448532  51.1716319  35.2186170   5.5247433  50.6213352
  35.9878981   5.7543858  51.9048267  33.1586063   2.7908491  57.7711662
  33.3702959   3.4340251  57.0946043  33.1115812   1.9570807  57.3033592
  30.7612292  -4.5973689  54.6748234  29.8996771  -4.2992435  54.9664972
  30.7874727  -4.3803290  53.7429267  27.5773862   3.9468502  51.0822040
  28.0412207   4.2256205  50.2926663  27.3130660   3.0451946  50.8995131
  24.4697943   3.4939983  54.0201803  25.0399300   3.9227252  53.3819288
  25.0606055   3.2122568  54.7185989  26.5142748   0.0691654  47.8911605
  27.2166791   0.5212698  48.3585532  26.1823376  -0.5724527  48.5191498
  20.2568082  -1.6724793  53.1928739  19.4667136  -1.4167265  52.7168849
  20.7479329  -0.8576455  53.2980779  34.2731891   5.6680446  55.9434020
  35.0949335   5.2660633  55.6616701  34.2694294   5.5648680  56.8950135
  22.2082827  -1.3080214  50.1512216  21.4113990  -1.1961520  50.6695711
  21.9808419  -0.9693562  49.2853106  28.0388495   5.2164489  58.0994730
  28.1032927   5.6784897  58.9352902  27.3299419   4.5861854  58.2277040
  42.3637884   2.0119195  52.2918991  41.6101593   1.4426593  52.1362996
  42.4985426   1.9781859  53.2389626  27.7536512   6.8832597  47.9673710
  27.6182187   7.7284133  48.3958558  28.2946325   7.0851875  47.2039644
  21.2065910   4.4008035  48.5401636  21.7190430   5.1951285  48.6907200
  21.8588623   3.7034325  48.4735237  23.0160794   7.5173791  50.6224389
  23.1927423   8.4391756  50.4345373  23.8117628   7.2032210  51.0518769
  29.3804989   7.5056163  62.0974053  28.9368843   6.7192542  61.7794957
  30.0422202   7.6935314  61.4317943  24.1392110   9.0351965  56.6234731
  24.6899535   8.9069028  55.8511725  23.3003586   9.3346854  56.2729624
  31.4786227   7.7858963  60.1255454  31.4604702   8.6067844  59.6335723
  32.4006147   7.6613039  60.3505595  27.9359281   5.3003093  60.9678962
  28.4687618   4.5391381  60.7378270  27.4073362   5.0076745  61.7103117
  19.1714827   2.7296689  49.3161206  20.0090049   3.1393698  49.0994914
  19.3493094   1.7896131  49.2861400  31.0679259   0.3971770  45.0045039
  30.5525882   1.1676374  45.2433426  30.7956567  -0.2763094  45.6278100
  28.6526370  -4.7578529  50.0630277  27.7967966  -5.1471679  49.8835916
  29.0653321  -4.6786569  49.2030063  36.0413533   3.1504125  46.9398213
  35.2642976   2.8115284  46.4953375  36.7205014   3.1556748  46.2653178
  30.8565562  -1.7301138  46.8304820  30.5515697  -1.4154989  47.6814963
  31.8096004  -1.6519718  46.8732153  29.3011994   4.4289085  48.4797774
  28.7733355   3.6941845  48.1671012  28.7999496   5.2063762  48.2337743
  34.2804840   2.6238106  53.5964821  33.6228514   3.3137367  53.6844949
  35.0845239   3.0134538  53.9398807  33.0910298   0.9782478  51.6468762
  33.6042180   1.6112470  52.1490472  33.7411522   0.3783674  51.2812122
  24.3600308  -2.8786787  44.8600271  23.5237621  -2.5412101  45.1809546
  24.2205078  -3.0137808  43.9227408  27.4464594   2.2469296  41.4832747
  26.5391656   2.0158549  41.6823896  27.9435626   1.4506915  41.6706729
  30.3532673  10.9566803  44.4029433  29.6794371  11.2598499  45.0114391
  30.7398495  11.7595883  44.0534890  29.5691129  -1.5468066  53.8927103
  28.6513691  -1.3253119  53.7348791  29.9851273  -1.4721756  53.0338810
  30.3526177  -0.1476650  49.0229783  31.0997996   0.3644747  48.7136905
  30.6217767  -0.4692598  49.8834177  28.6252827   2.3481890  46.0056737
  27.7164047   2.0640923  46.1029207  28.6547911   2.7680969  45.1460044
  33.8572095   5.9588480  49.7747905  33.4034422   5.1179390  49.8313095
  33.2266061   6.5949878  50.1122685  32.8005014  -3.1119534  51.0048572
  32.0627771  -3.6242148  51.3358815  33.0531788  -3.5519152  50.1931849
  32.3005034   7.7964977  50.7097723  32.5928008   8.3570034  49.9910089
  32.8103655   8.0893538  51.4650882  19.1940998   0.0687405  49.9871940
  18.9965397  -0.5243235  49.2623006  18.6387662  -0.2360385  50.7047878
  27.1737721  -0.0389489  52.1066533  27.2286331  -0.9915653  52.0309009
  26.3628923   0.1169950  52.5907831  28.3228915   3.8890634  43.3444816
  27.8848345   3.1726493  42.8850453  29.0639356   4.1166749  42.7829907
  25.1130081  -1.4212429  49.8656912  24.2997947  -1.1218259  50.2722104
  25.6089075  -1.8156740  50.5831394  27.2638659   8.5745328  51.7991176
  27.2214838   8.8006174  50.8699708  28.1801358   8.3408702  51.9476977
  30.7104293  -0.9570605  58.6971805  31.0653681  -0.7299132  59.5566271
  31.3576424  -0.6252228  58.0749061  36.4402030   2.1647831  49.4021134
  36.3019928   2.3549427  48.4742324  36.0838249   2.9267214  49.8589186
  24.6044156  -3.8494074  55.4818146  25.2443535  -3.9905315  54.7841110
  23.7721687  -4.1359560  55.1056748  36.4671409   4.2324358  54.4132406
  36.9007916   4.1399647  55.2615460  37.1802990   4.2081859  53.7752422
  25.3804460   5.4508357  51.5953139  26.1745058   4.9558677  51.3935714
  24.6696152   4.9226220  51.2320845  30.1999304   7.8326452  55.9465507
  30.2536327   8.4017389  56.7143222  29.3314086   8.0028337  55.5819544
  21.6887223  -0.4048562  47.6712892  20.7584811  -0.4664106  47.8882854
  21.7844695  -0.9272609  46.8749533  37.3286959   4.2748059  56.9465291
  37.5222849   5.1793869  57.1924566  37.2287577   3.8155478  57.7803876
  32.3902068   4.4254802  62.5206172  32.2387574   4.1965353  61.6036256
  32.3806747   5.3825403  62.5337517  29.1587404   1.9986714  57.5052438
  30.0879464   2.1497874  57.3321406  28.7378434   2.0870735  56.6501085
  27.9575736   6.0237379  55.2750976  27.8186822   5.6556163  56.1476914
  27.1690332   6.5385018  55.1034934  28.5523888  11.1246475  46.6176513
  28.7275644  10.6534518  47.4322135  27.8656676  11.7512241  46.8457773
  29.5080951   5.4018981  52.6639814  29.1730784   5.3619751  53.5597464
  29.0084897   4.7363697  52.1910224  32.4440143   2.7475016  42.9376873
  31.8269313   2.0221844  42.8409926  31.9756631   3.5084376  42.5943948
  26.1107496   0.5206571  57.6776075  26.8207114  -0.1200237  57.6362693
  26.0676804   0.7719466  58.6002255  34.0994274   7.4573924  60.5982654
  34.0406821   6.7733144  59.9313237  34.5013793   8.1992914  60.1463280
  23.1184973  14.2735838  53.3916373  23.3581571  14.9054362  54.0695391
  22.2754170  13.9223878  53.6781732  24.2338689  -3.0339560  42.0598178
  23.3568155  -3.1550759  41.6960424  24.7096442  -3.8253482  41.8077066
  34.1011682   5.4213508  58.8296634  33.2138460   5.0839430  58.9523032
  34.6710233   4.6896539  59.0665399  15.7540829   1.7537600  52.1539685
  16.4411869   1.4399330  51.5660700  15.5988957   2.6578964  51.8806936
  27.6312835  10.0814960  55.7957877  27.5583006  10.8869932  56.3077181
  27.1890228  10.2806926  54.9705898  27.4202615   9.3186730  49.3060698
  26.6370137   9.8608411  49.3998923  28.1195360   9.8360710  49.7054939
  38.5829022   0.8321725  53.5913195  38.5718898   1.7146441  53.2207128
  37.7146402   0.4793276  53.3967732  30.0911519   9.9801794  57.9516035
  30.8039491  10.6149259  57.8791937  29.6001547  10.0765660  57.1356037
  31.8129045   3.8853047  49.5233327  30.8785324   4.0054510  49.3538031
  31.9905714   2.9825514  49.2593337  27.3134234  -2.7301257  51.6766588
  26.9432021  -3.2830217  52.3647494  27.8093326  -3.3343124  51.1241588
  35.2001597  -0.2729634  50.0583361  35.6662049   0.5598358  49.9843664
  35.6509097  -0.7384652  50.7628620  25.1423432   7.7296238  58.7721606
  25.8432892   8.3632721  58.9251000  24.6718547   8.0710969  58.0117245
  33.2677828   6.0714188  47.0569513  33.5437672   5.9570782  47.9663387
  32.3982327   5.6731672  47.0181686  32.9424718   0.2840845  56.5974157
  32.2896168   0.5316753  55.9426609  33.3205098  -0.5295017  56.2636634
  29.9031892  10.3200538  50.7002327  30.0854286   9.5022194  51.1630079
  30.7264878  10.5368231  50.2627217  30.2374057   9.2468724  47.9617375
  30.7661824   8.7361178  47.3487537  30.5002277   8.9311254  48.8262908
  20.7391150   7.2632593  55.7052709  21.3244587   6.5176281  55.8380613
  20.5415989   7.5736550  56.5889373  23.5929805  10.2983840  50.7215151
  22.9240181  10.7829968  50.2379191  23.4542675  10.5453061  51.6358530
  27.7335074  12.3327584  57.3197810  28.2853382  12.4959205  58.0846895
  28.0741267  12.9232022  56.6477834  32.5845948   7.1588841  63.1746464
  33.1285852   7.7718800  62.6801419  32.0032793   7.7168420  63.6913477
  30.8703461  10.2809559  54.3061492  30.7454601   9.4799299  53.7972437
  31.5282552  10.7755753  53.8175462  22.4911629  -3.3641708  53.4838632
  21.7698215  -2.7505740  53.3446105  23.2804885  -2.8283943  53.4055278
  32.9338370   8.0818579  55.9341042  31.9868705   7.9623931  55.8619369
  33.2821143   7.1941077  56.0167303  29.9384803   7.8771296  52.1345394
  29.7909765   6.9488003  52.3152964  30.7638296   7.8991386  51.6502469
  23.8047047  -3.4710637  47.9925886  24.1443120  -2.9424716  47.2704495
  24.2519168  -3.1330231  48.7684453  33.5418925   8.6999854  53.2210267
  34.4665472   8.4942716  53.0834718  33.3734228   8.4516256  54.1299608
  25.7915194  -4.9736016  46.1919179  26.5123557  -4.5954763  45.6882896
  25.1680498  -4.2547139  46.2954157  29.9346317  -4.2690867  47.1277511
  30.1509932  -3.3866229  46.8266340  29.4540384  -4.6604653  46.3983153
  24.6745539  -1.3105153  53.7048256  24.5290119  -0.9964850  54.5972537
  24.1970742  -0.6920253  53.1519155  26.5341921  -4.3202606  53.7529145
  26.5203490  -5.2161512  53.4161443  27.2514350  -4.3131942  54.3867432
  28.3868052  -3.8865265  55.7982273  28.1285830  -2.9648195  55.7966603
  27.8553093  -4.2834831  56.4882737  33.3314241   9.2185522  48.5772358
  33.5051118   8.6531944  47.8246211  33.8243132  10.0186417  48.3951848
  19.1491201   1.2300191  56.6435917  18.6044669   2.0059999  56.7756191
  20.0270551   1.5770995  56.4855039  39.1853632   1.9821945  50.1962658
  39.6284778   1.2329270  49.7981781  38.3080142   1.9732081  49.8136390
  34.3189413   8.5352286  45.6769257  35.0140318   9.1558979  45.8956571
  34.6612564   7.6847637  45.9521634  36.2180837   5.9851992  47.2056587
  36.7432161   6.3239265  46.4805907  36.1303189   5.0499007  47.0219722
  27.8800885   9.8986065  59.3346464  28.1888012   9.6535212  60.2069164
  28.6776367  10.1032704  58.8465334  27.9021497  12.0523975  51.5651841
  27.4626488  11.5600354  52.2584697  28.6529614  11.5096943  51.3243916
  20.3813836   8.2435516  51.5676469  21.2071856   7.9439288  51.1875112
  20.0307888   7.4743138  52.0166257  25.3495369   7.5961984  53.6374142
  24.7275379   6.9332689  53.3376370  26.0200236   7.6223116  52.9547790
  18.5822441   6.1621842  52.5265402  17.7454350   5.7344017  52.3449403
  18.5546087   6.3554286  53.4636193  35.9074743   6.6184895  62.5107785
  35.1170286   6.6009034  61.9712285  35.6708097   7.1573189  63.2656822
  36.0272618   3.4677362  59.8240514  36.0770623   3.3027369  60.7656037
  35.9186541   2.6004621  59.4338395  24.9108876   6.1465907  47.1132603
  25.0596997   6.8301372  46.4599275  25.7175320   6.1270998  47.6282058
  33.3176380  -0.5491710  61.1399821  34.2186243  -0.6885245  60.8483818
  33.3924355  -0.3837255  62.0797998  37.5290815   5.8874303  60.0682535
  37.2375623   6.2504284  60.9045996  36.9162946   5.1741312  59.8895867
  38.7286497   3.4527183  52.5885106  39.5633388   3.8916987  52.7522666
  38.8645626   2.9765836  51.7693351  35.7778003   1.0106918  58.5362593
  36.2532124   1.2034564  57.7281445  34.8543568   1.0666104  58.2905977
  22.6661509   2.1731085  48.1193672  22.4207551   1.2693415  48.3173882
  22.8357424   2.1748236  47.1773150  21.9357157  -2.0940557  45.6179833
  21.2426402  -2.0196202  44.9619869  21.6908909  -2.8580214  46.1401350
  28.4104282   8.6414038  44.5844350  27.8378249   9.2604225  44.1314822
  28.9837076   9.1913400  45.1184272  34.4779672  -2.1127322  56.7690899
  35.4297095  -2.0129224  56.7903123  34.3083122  -2.9049053  57.2788983
  31.6301542   8.9251188  45.7152932  32.5632215   8.8596750  45.9185808
  31.5424755   9.7607455  45.2567465  34.2589558   8.2417058  42.6756880
  34.1803190   7.9076922  43.5692638  35.0799225   8.7338826  42.6748352
  36.9567750   1.1078798  55.8833199  36.9244070   0.1694798  56.0692882
  37.5668373   1.1862834  55.1499024  28.7951080  -0.0225149  41.9260403
  29.7410185  -0.1518941  41.9948821  28.4165325  -0.7610487  42.4029831
  42.7744299   2.1694805  55.0239235  43.5047688   1.9080093  55.5846939
  42.1651245   1.4323526  55.0641303  40.8559597   0.3102667  55.6213687
  40.1292760   0.1758632  55.0130178  40.4406883   0.6179496  56.4270405
  26.9793998  -2.0975173  41.8615288  26.0725453  -2.3942060  41.9378002
  27.2569979  -2.3945355  40.9949574  21.6751845   1.9393631  56.0283841
  21.8937855   2.8710739  56.0471875  22.0877619   1.5801606  56.8138645
  25.7492782  -5.2388238  42.0027267  26.6111946  -4.9133339  42.2623084
  25.9343126  -6.0256742  41.4900333  17.7660198   2.8434102  54.2807456
  17.0723669   2.4288055  53.7677410  18.5133189   2.8854638  53.6840875
  19.6796940   2.7752356  52.1573471  19.6567629   2.8740043  51.2055354
  19.9897577   3.6217507  52.4790637  22.3384318   4.8328511  56.2720085
  23.2927572   4.8012453  56.2050017  22.1396842   4.3719134  57.0870311
  22.9283700   3.4029627  58.8390883  23.7476589   3.8973705  58.8625720
  23.2020508   2.4861595  58.8108450  20.6934547  10.3748130  53.2890283
  20.5589015   9.6148531  52.7228281  20.2766609  11.0989030  52.8219072
  31.8293510   5.5585054  42.2966858  32.5329360   5.7635056  42.9124514
  31.1056159   6.1261816  42.5615942  32.6591320   1.3094915  48.4169129
  32.6026522   1.7663466  47.5776761  33.2119663   0.5485600  48.2391971
  40.7808464  -0.1619280  51.7490539  40.2208022  -0.0926091  52.5222101
  40.1751968  -0.3378295  51.0290036  23.8503673  11.2717447  53.5008726
  23.7336057  12.2162880  53.3987416  23.0296119  10.9691009  53.8894525
  33.7380208   5.9967583  44.3465318  34.5725811   5.5648781  44.1642793
  33.5764550   5.8249597  45.2742213  33.3926100   2.4999696  45.7121658
  33.3374904   2.3343968  44.7710102  32.7672155   3.2075729  45.8683847
  24.8758187  11.9245709  56.7164654  25.7785434  11.9569319  57.0331149
  24.6495557  10.9946160  56.7310990  26.6311789  10.6776696  53.3774733
  25.6807420  10.6778557  53.2639105  26.9344275   9.9309430  52.8610767
  42.3664483  16.5137234  54.4420495  43.0042893  16.3943981  53.7383835
  42.2485326  17.4618078  54.5008447  39.1754189  16.4664662  54.3782020
  38.8372700  16.3505727  53.4902555  40.0443957  16.0655827  54.3583026
  35.0341005  18.3200139  50.3678911  34.4705870  18.2290076  49.5995199
  34.9193400  17.5000043  50.8481403  39.6573972  17.6199514  60.3368225
  39.6462613  17.2252312  59.4648729  39.8194611  16.8865587  60.9301997
  32.5805437  19.8151330  53.2063131  33.3726728  19.4742155  52.7909431
  32.8202087  19.9246305  54.1265285  40.6140563  21.9871106  45.6793376
  39.9628543  22.5725187  45.2927389  41.4084926  22.5177301  45.7388413
  34.5396190  19.0760243  46.0780510  35.3127066  18.5289231  45.9393386
  34.8921589  19.9404493  46.2894971  36.3781233  20.4036626  59.2847409
  36.0871099  21.3082257  59.1694076  37.0138217  20.4453153  59.9991479
  37.3037440  17.7813474  55.8748769  37.9001012  17.5569497  55.1605732
  37.3612411  17.0398220  56.4774217  36.8762468  15.2352910  43.7098960
  37.1287989  14.7134431  42.9482423  35.9387027  15.0719055  43.8125644
  41.9205751  14.2388688  51.5173703  42.7068840  13.8208111  51.1664120
  42.1844455  15.1434780  51.6855352  42.0915828  19.6761538  46.2162360
  41.4561661  19.7496165  46.9283265  41.7613235  20.2655137  45.5381439
  47.3214178  14.1763921  52.4206682  48.0539350  13.6063138  52.6544511
  46.5653534  13.7885522  52.8613187  36.5958757  17.1381016  45.9123335
  36.4795015  16.4625919  46.5804419  36.7061017  16.6513389  45.0955488
  38.9390298  16.5991163  49.6170024  38.5748505  16.0721784  50.3282946
  39.7957414  16.2089632  49.4436510  44.8439599   7.8885495  56.8801290
  44.5122923   8.7580906  56.6562505  44.2485212   7.5721779  57.5595321
  38.5795785  11.6281062  44.6131373  38.7470187  12.4961299  44.9801844
  38.3892954  11.7908344  43.6892662  41.3371118  20.0898041  56.2797203
  41.0371841  20.9923080  56.1713010  40.9922178  19.8230224  57.1318356
  34.7883600  16.5411838  52.3133907  33.8634096  16.4088052  52.5211599
  35.0368013  17.3206057  52.8103850  44.7368262  12.6080581  53.9594640
  43.8285139  12.5395990  53.6653401  44.6855858  13.0852526  54.7876466
  38.5585006  14.0838720  45.5978039  38.4384631  14.5295771  46.4363520
  37.8637594  14.4324038  45.0391578  32.1492411  16.1845112  53.1477697
  32.2784792  16.4379591  54.0617108  31.4689862  16.7772820  52.8282352
  38.8109128  14.0270227  61.9029538  38.0342462  14.5864147  61.8932402
  39.4499691  14.5127010  62.4244408  46.6029908  10.8097020  55.7372514
  45.9604289  11.1029553  55.0912309  46.0984837  10.6949940  56.5425711
  44.2570072  14.5560193  46.4258374  45.1687928  14.7887580  46.2506071
  43.7479719  15.1397237  45.8633452  37.0655500  16.8355680  61.4647505
  37.8070184  17.3740724  61.1882328  36.3592485  17.4621969  61.6219056
  42.5410840  18.9784821  60.0619666  42.9494196  18.5367231  59.3174298
  41.8188101  18.4037448  60.3153859  38.8941910  13.9157428  57.4353223
  39.7403105  14.3396841  57.5787872  38.8340547  13.2591052  58.1291786
  42.8639654  19.5386011  53.8171955  42.2348517  19.7031726  53.1148023
  42.4765316  19.9527621  54.5882919  46.7428886  20.4740449  51.1716319
  46.0579924  20.8539351  50.6213352  46.8272735  21.0835776  51.9048267
  42.0441355  11.5761796  59.0934397  41.8002287  12.3303856  58.5568672
  42.3201286  11.9547144  59.9281644  43.9979818  18.1200408  57.7711662
  44.2096713  18.7632168  57.0946043  43.9509566  17.2862725  57.3033592
  41.6006047  10.7318229  54.6748234  40.7390526  11.0299483  54.9664972
  41.6268481  10.9488628  53.7429267  38.4167616  19.2760420  51.0822040
  38.8805962  19.5548123  50.2926663  38.1524414  18.3743864  50.8995131
  35.3091697  18.8231901  54.0201803  35.8793054  19.2519169  53.3819288
  35.8999809  18.5414486  54.7185989  37.3536502  15.3983572  47.8911605
  38.0560546  15.8504616  48.3585532  37.0217131  14.7567391  48.5191498
  35.8016864  13.9895329  62.2662815  35.1715524  14.6711609  62.4998211
  35.6952952  13.8778410  61.3215953  31.0961836  13.6567125  53.1928739
  30.3060890  13.9124653  52.7168849  31.5873084  14.4715462  53.2980779
  45.1125646  20.9972364  55.9434020  45.9343089  20.5952551  55.6616701
  45.1088049  20.8940598  56.8950135  33.0476582  14.0211704  50.1512216
  32.2507745  14.1330398  50.6695711  32.8202174  14.3598356  49.2853106
  38.8782249  20.5456407  58.0994730  38.9426682  21.0076814  58.9352902
  38.1693173  19.9153772  58.2277040  29.3799539  13.9097615  55.6243730
  29.6307578  14.7944625  55.8901306  29.9159088  13.7302217  54.8518821
  53.2031639  17.3411112  52.2918991  52.4495347  16.7718510  52.1362996
  53.3379180  17.3073777  53.2389626  38.5930267  22.2124515  47.9673710
  38.4575942  23.0576050  48.3958558  39.1340079  22.4143792  47.2039644
  35.0797606   8.2916094  64.6288066  34.6864552   7.7382293  65.3035710
  35.8963747   8.6026673  65.0194583  32.0459664  19.7299953  48.5401636
  32.5584185  20.5243203  48.6907200  32.6982377  19.0326243  48.4735237
  37.9965567   9.7073973  62.2208322  38.7375281  10.3081127  62.1412785
  38.2283490   8.9651611  61.6626365  33.1406905  14.8930341  60.4986552
  33.0260421  13.9915598  60.7993651  32.2851423  15.1394038  60.1471368
  40.2198743  22.8348081  62.0974053  39.7762597  22.0484460  61.7794957
  40.8815957  23.0227232  61.4317943  34.9785864  24.3643883  56.6234731
  35.5293290  24.2360946  55.8511725  34.1397340  24.6638772  56.2729624
  42.3179981  23.1150881  60.1255454  42.2998457  23.9359762  59.6335723
  43.2399901  22.9904956  60.3505595  38.7753035  20.6295010  60.9678962
  39.3081372  19.8683299  60.7378270  38.2467117  20.3368662  61.7103117
  41.9422730   5.7355076  56.4972604  41.5987000   6.6256718  56.4211715
  42.3101693   5.5456734  55.6342189  30.0108581  18.0588607  49.3161206
  30.8483803  18.4685615  49.0994914  30.1886849  17.1188049  49.2861400
  41.9073013  15.7263688  45.0045039  41.3919637  16.4968292  45.2433426
  41.6350322  15.0528824  45.6278100  39.4920124  10.5713388  50.0630277
  38.6361721  10.1820239  49.8835916  39.9047076  10.6505349  49.2030063
  41.0219271   8.1059732  54.4621837  40.5184066   8.0689867  53.6489642
  41.3149878   9.0152474  54.5218494  37.2662157   8.1898461  53.4688019
  38.1315153   7.9941270  53.1093908  37.3339666   7.9608813  54.3957376
  46.8807287  18.4796042  46.9398213  46.1036730  18.1407202  46.4953375
  47.5598768  18.4848665  46.2653178  41.6959316  13.5990780  46.8304820
  41.3909452  13.9136929  47.6814963  42.6489758  13.6772200  46.8732153
  40.1405748  19.7581003  48.4797774  39.6127110  19.0233763  48.1671012
  39.6393251  20.5355679  48.2337743  45.1198594  17.9530023  53.5964821
  44.4622269  18.6429285  53.6844949  45.9238993  18.3426455  53.9398807
  34.8724476  10.4200669  50.8404386  35.4468228  10.1975851  50.1077579
  35.4595458  10.4889364  51.5932987  43.9304053  16.3074396  51.6468762
  44.4435935  16.9404388  52.1490472  44.5805277  15.7075592  51.2812122
  35.1994063  12.4505130  44.8600271  34.3631375  12.7879817  45.1809546
  35.0598833  12.3154110  43.9227408  37.1747143   7.2941918  49.5679455
  36.5211556   6.9790935  48.9436070  37.1327618   6.6717659  50.2939278
  38.2858348  17.5761213  41.4832747  37.3785410  17.3450467  41.6823896
  38.7829380  16.7798832  41.6706729  40.4084884  13.7823852  53.8927103
  39.4907445  14.0038799  53.7348791  40.8245027  13.8570162  53.0338810
  41.1919932  15.1815267  49.0229783  41.9391751  15.6936665  48.7136905
  41.4611521  14.8599320  49.8834177  39.4646582  17.6773808  46.0056737
  38.5557801  17.3932841  46.1029207  39.4941666  18.0972887  45.1460044
  44.6965849  21.2880398  49.7747905  44.2428176  20.4471307  49.8313095
  44.0659816  21.9241796  50.1122685  43.6398769  12.2172384  51.0048572
  42.9021526  11.7049770  51.3358815  43.8925542  11.7772765  50.1931849
  43.1398788  23.1256894  50.7097723  43.4321763  23.6861951  49.9910089
  43.6497409  23.4185455  51.4650882  43.7410396   4.9948636  51.5990342
  44.0469273   4.1345999  51.3116257  44.4663001   5.5866256  51.3989336
  30.0334752  15.3979322  49.9871940  29.8359152  14.8048683  49.2623006
  29.4781416  15.0931532  50.7047878  38.0131476  15.2902429  52.1066533
  38.0680086  14.3376265  52.0309009  37.2022678  15.4461868  52.5907831
  39.1622670  19.2182552  43.3444816  38.7242099  18.5018411  42.8850453
  39.9033110  19.4458667  42.7829907  35.9523836  13.9079488  49.8656912
  35.1391701  14.2073659  50.2722104  36.4482830  13.5135177  50.5831394
  38.1032414  23.9037245  51.7991176  38.0608592  24.1298092  50.8699708
  39.0195112  23.6700620  51.9476977  41.5498047  14.3721313  58.6971805
  41.9047435  14.5992786  59.5566271  42.1970179  14.7039690  58.0749061
  47.2795784  17.4939749  49.4021134  47.1413683  17.6841345  48.4742324
  46.9232003  18.2559132  49.8589186  35.4437910  11.4797844  55.4818146
  36.0837290  11.3386603  54.7841110  34.6115441  11.1932357  55.1056748
  47.3065164  19.5616276  54.4132406  47.7401671  19.4691565  55.2615460
  48.0196745  19.5373776  53.7752422  36.2198214  20.7800274  51.5953139
  37.0138813  20.2850595  51.3935714  35.5089907  20.2518137  51.2320845
  41.0393059  23.1618370  55.9465507  41.0930081  23.7309306  56.7143222
  40.1707840  23.3320255  55.5819544  32.5280978  14.9243356  47.6712892
  31.5978566  14.8627812  47.8882854  32.6238450  14.4019309  46.8749533
  32.4466527  11.4498169  50.2591133  32.7073344  12.3643502  50.1500294
  33.2683699  10.9822611  50.4087746  33.9191452  12.8635926  57.4289958
  34.5914506  12.6553288  56.7802607  33.0921239  12.6658012  56.9895190
  48.1680714  19.6039976  56.9465291  48.3616604  20.5085787  57.1924566
  48.0681332  19.1447396  57.7803876  39.8217024   9.4897867  59.4455619
  39.1744939  10.1887817  59.3520095  40.5918040   9.9234011  59.8131867
  43.2295822  19.7546719  62.5206172  43.0781329  19.5257271  61.6036256
  43.2200502  20.7117321  62.5337517  39.9981159  17.3278632  57.5052438
  40.9273219  17.4789792  57.3321406  39.5772189  17.4162653  56.6501085
  38.7969490  21.3529296  55.2750976  38.6580576  20.9848081  56.1476914
  38.0084087  21.8676936  55.1034934  40.3474706  20.7310899  52.6639814
  40.0124538  20.6911669  53.5597464  39.8478651  20.0655615  52.1910224
  34.3218949  16.1378529  58.1892395  34.1838747  15.4058768  58.7903934
  35.2323873  16.0487429  57.9076583  43.2833897  18.0766933  42.9376873
  42.6663068  17.3513762  42.8409926  42.8150386  18.8376294  42.5943948
  36.9501250  15.8498488  57.6776075  37.6600869  15.2091681  57.6362693
  36.9070558  16.1011383  58.6002255  44.9388029  22.7865842  60.5982654
  44.8800575  22.1025062  59.9313237  45.3407547  23.5284832  60.1463280
  35.6630184  12.8363706  59.4971714  35.1267541  12.3854445  60.1493310
  35.0746893  12.9709615  58.7542178  33.9578728  29.6027756  53.3916373
  34.1975326  30.2346280  54.0695391  33.1147924  29.2515796  53.6781732
  35.0732443  12.2952358  42.0598178  34.1961909  12.1741158  41.6960424
  35.5490196  11.5038436  41.8077066  44.9405436  20.7505426  58.8296634
  44.0532215  20.4131347  58.9523032  45.5103987  20.0188457  59.0665399
  26.5934583  17.0829517  52.1539685  27.2805623  16.7691247  51.5660700
  26.4382712  17.9870882  51.8806936  31.3969305  11.9719714  56.5824709
  31.3127494  11.3645384  55.8475119  30.5752012  12.4628732  56.5834205
  38.4706590  25.4106878  55.7957877  38.3976761  26.2161850  56.3077181
  38.0283983  25.6098844  54.9705898  38.2596369  24.6478648  49.3060698
  37.4763891  25.1900328  49.3998923  38.9589114  25.1652628  49.7054939
  41.5693019  10.4573278  51.9494904  42.0661719   9.7043240  51.6295974
  40.7980001  10.4937594  51.3838113  49.4222777  16.1613643  53.5913195
  49.4112653  17.0438358  53.2207128  48.5540156  15.8085194  53.3967732
  40.9305273  25.3093712  57.9516035  41.6433245  25.9441177  57.8791937
  40.4395302  25.4057578  57.1356037  42.6522800  19.2144965  49.5233327
  41.7179079  19.3346427  49.3538031  42.8299468  18.3117432  49.2593337
  38.1527988  12.5990661  51.6766588  37.7825776  12.0461701  52.3647494
  38.6487080  11.9948794  51.1241588  46.0395351  15.0562284  50.0583361
  46.5055803  15.8890276  49.9843664  46.4902852  14.5907266  50.7628620
  35.9817187  23.0588156  58.7721606  36.6826646  23.6924638  58.9251000
  35.5112302  23.4002887  58.0117245  44.1071582  21.4006105  47.0569513
  44.3831426  21.2862700  47.9663387  43.2376081  21.0023590  47.0181686
  44.0112014   7.4242871  54.0974263  43.0975094   7.6547098  54.2656469
  44.4405115   7.5081315  54.9488295  43.7818473  15.6132763  56.5974157
  43.1289923  15.8608670  55.9426609  44.1598852  14.7996901  56.2636634
  40.7425646  25.6492456  50.7002327  40.9248041  24.8314112  51.1630079
  41.5658632  25.8660148  50.2627217  41.0767812  24.5760641  47.9617375
  41.6055578  24.0653096  47.3487537  41.3396031  24.2603171  48.8262908
  39.8306046  16.3552574  63.0840194  39.1546683  16.2546703  63.7542569
  40.6533679  16.1991788  63.5476191  31.5784905  22.5924511  55.7052709
  32.1638341  21.8468198  55.8380613  31.3809743  22.9028467  56.5889373
  26.1702559  15.1630111  54.4257152  26.2086659  14.6293701  55.2194270
  25.6642852  14.6365316  53.8068129  38.5728828  27.6619501  57.3197810
  39.1247136  27.8251123  58.0846895  38.9135022  28.2523939  56.6477834
  33.5493322  10.0094651  57.9219694  33.6134648  10.8709482  57.5097092
  33.4860442   9.3968653  57.1892053  33.0245594  12.0817784  61.5692729
  33.6517633  11.6994861  62.1830253  32.1673513  11.8631986  61.9348421
  43.4239703  22.4880759  63.1746464  43.9679607  23.1010717  62.6801419
  42.8426548  23.0460337  63.6913477  29.8011137  13.8894213  47.5011083
  30.0964578  12.9804891  47.4478137  28.8999173  13.8681952  47.1792086
  41.7097216  25.6101477  54.3061492  41.5848355  24.8091217  53.7972437
  42.3676307  26.1047670  53.8175462  33.3305384  11.9650210  53.4838632
  32.6091970  12.5786177  53.3446105  34.1198640  12.5007974  53.4055278
  43.7732124  23.4110497  55.9341042  42.8262460  23.2915848  55.8619369
  44.1214897  22.5232995  56.0167303  36.1331697   9.3004636  59.7579284
  36.6566099   9.5466933  60.5205593  35.9144031  10.1324671  59.3382421
  31.5298979  11.5708311  47.6250409  31.2011685  10.6905690  47.4425514
  31.8838349  11.5155979  48.5126798  40.7778557  23.2063213  52.1345394
  40.6303520  22.2779921  52.3152964  41.6032051  23.2283304  51.6502469
  34.6440802  11.8581280  47.9925886  34.9836874  12.3867202  47.2704495
  35.0912922  12.1961687  48.7684453  44.3812679  24.0291772  53.2210267
  45.3059227  23.8234633  53.0834718  44.2127983  23.7808173  54.1299608
  37.3384243  10.2418331  57.4428954  36.9981063   9.4426144  57.8449634
  36.6323249  10.5420042  56.8705787  37.9900714   7.3267644  55.8956277
  38.8126784   6.8528122  55.7735168  38.2338778   8.1058127  56.3954964
  36.6308949  10.3555902  46.1919179  37.3517311  10.7337155  45.6882896
  36.0074253  11.0744779  46.2954157  40.7740072  11.0601051  47.1277511
  40.9903686  11.9425689  46.8266340  40.2934139  10.6687264  46.3983153
  35.5139293  14.0186764  53.7048256  35.3683874  14.3327067  54.5972537
  35.0364497  14.6371665  53.1519155  37.3735676  11.0089312  53.7529145
  37.3597245  10.1130405  53.4161443  38.0908104  11.0159976  54.3867432
  39.2261807  11.4426652  55.7982273  38.9679585  12.3643723  55.7966603
  38.6946847  11.0457087  56.4882737  44.1707995  24.5477439  48.5772358
  44.3444873  23.9823862  47.8246211  44.6636887  25.3478334  48.3951848
  29.9884955  16.5592109  56.6435917  29.4438423  17.3351917  56.7756191
  30.8664305  16.9062913  56.4855039  36.7772572   9.8903692  49.0216716
  36.8988483   8.9620339  49.2207603  36.4874614   9.9042378  48.1095031
  39.6463762   7.5758603  52.1583435  39.6685459   7.6397936  51.2035415
  40.0631821   6.7363112  52.3523942  50.0247387  17.3113862  50.1962658
  50.4678533  16.5621188  49.7981781  49.1473897  17.3023999  49.8136390
  45.1583168  23.8644204  45.6769257  45.8534073  24.4850897  45.8956571
  45.5006318  23.0139555  45.9521634  30.7750977  15.6862005  59.5366074
  30.0332713  15.8344640  60.1230704  30.4543721  15.9470270  58.6732823
  47.0574591  21.3143909  47.2056587  47.5825915  21.6531182  46.4805907
  46.9696944  20.3790925  47.0219722  38.7194640  25.2277983  59.3346464
  39.0281766  24.9827130  60.2069164  39.5170122  25.4324622  58.8465334
  38.7415252  27.3815893  51.5651841  38.3020242  26.8892271  52.2584697
  39.4923369  26.8388860  51.3243916  31.2207591  23.5727434  51.5676469
  32.0465611  23.2731205  51.1875112  30.8701643  22.8035056  52.0166257
  36.1889124  22.9253902  53.6374142  35.5669133  22.2624607  53.3376370
  36.8593991  22.9515034  52.9547790  29.4216196  21.4913760  52.5265402
  28.5848104  21.0635934  52.3449403  29.3939841  21.6846203  53.4636193
  36.2613651  11.4035690  63.2306648  36.3101807  12.2797813  62.8484418
  36.8036166  10.8613083  62.6578291  46.7468497  21.9476813  62.5107785
  45.9564041  21.9300952  61.9712285  46.5101852  22.4865107  63.2656822
  46.8666372  18.7969279  59.8240514  46.9164377  18.6319287  60.7656037
  46.7580296  17.9296538  59.4338395  44.1570135  14.7800207  61.1399821
  45.0579997  14.6406672  60.8483818  44.2318109  14.9454662  62.0797998
  38.4912940  12.1567062  59.9853007  37.6216249  12.4500628  59.7135595
  38.7272420  12.7407507  60.7060271  48.3684569  21.2166221  60.0682535
  48.0769377  21.5796202  60.9045996  47.7556700  20.5033229  59.8895867
  49.5680251  18.7819101  52.5885106  50.4027143  19.2208905  52.7522666
  49.7039380  18.3057754  51.7693351  46.6171757  16.3398836  58.5362593
  47.0925879  16.5326482  57.7281445  45.6937323  16.3958021  58.2905977
  33.5055264  17.5023003  48.1193672  33.2601306  16.5985333  48.3173882
  33.6751178  17.5040153  47.1773150  41.1951974   8.3746679  57.5018427
  41.7133918   9.1107706  57.1764916  40.8407106   8.6810672  58.3365186
  32.7750911  13.2351360  45.6179833  32.0820156  13.3095715  44.9619869
  32.5302663  12.4711704  46.1401350  41.4464568   4.7946962  53.0219324
  41.7266322   4.1270151  53.6479750  42.2315175   4.9876057  52.5093988
  45.3173426  13.2164596  56.7690899  46.2690849  13.3162693  56.7903123
  45.1476877  12.4242864  57.2788983  43.3387806  10.3020179  56.9550300
  42.7437738  10.5825192  56.2596789  43.0537502  10.7914080  57.7267041
  45.0983313  23.5708976  42.6756880  45.0196944  23.2368840  43.5692638
  45.9192980  24.0630744  42.6748352  47.7961504  16.4370715  55.8833199
  47.7637824  15.4986716  56.0692882  48.4062128  16.5154752  55.1499024
  39.6344835  15.3066768  41.9260403  40.5803940  15.1772976  41.9948821
  39.2559080  14.5681430  42.4029831  47.9455993  13.2281759  55.9291482
  47.4295041  12.4440215  55.7421411  48.8295941  12.9000475  56.0938001
  45.6066719   6.9722774  51.8887294  45.4091541   6.6637863  52.7730626
  46.2166425   7.6984413  52.0185224  53.6138054  17.4986722  55.0239235
  54.3441442  17.2372010  55.5846939  53.0044999  16.7615444  55.0641303
  51.6953351  15.6394585  55.6213687  50.9686515  15.5050550  55.0130178
  51.2800638  15.9471413  56.4270405  39.5183527  19.3584514  63.3861060
  40.4386537  19.5363113  63.5801106  39.4833110  18.4140560  63.2340759
  37.8187752  13.2316745  41.8615288  36.9119207  12.9349857  41.9378002
  38.0963733  12.9346563  40.9949574  28.7365692  14.5523108  52.3114334
  28.4168477  13.6988416  52.0188708  28.1899121  14.7671686  53.0672302
  32.5145600  17.2685549  56.0283841  32.7331610  18.2002657  56.0471875
  32.9271374  16.9093524  56.8138645  39.4349818   7.7753634  48.0159529
  38.6250546   7.4300719  48.3914775  40.1234235   7.4661178  48.6047141
  41.3640366   6.8531681  49.6383826  41.9171405   7.2727135  50.2973849
  41.6010452   5.9267429  49.6806782  37.3873465  12.8418755  65.4186590
  37.2870192  13.7913112  65.3498681  37.1695007  12.5136994  64.5462660
  36.5886537  10.0903680  42.0027267  37.4505701  10.4158578  42.2623084
  36.7736881   9.3035176  41.4900333  28.6053952  18.1726020  54.2807456
  27.9117424  17.7579972  53.7677410  29.3526943  18.2146556  53.6840875
  44.7419173   8.9632206  49.1462490  44.1617842   9.6217010  48.7640543
  44.4755106   8.1409551  48.7349908  43.1922740   8.3637264  51.3483810
  43.6922518   8.4753799  50.5398129  43.8358347   8.0598317  51.9884619
  37.2504735  16.2715894  64.2351651  36.7671817  17.0716254  64.4415540
  37.3365674  16.2823839  63.2819095  30.5190695  18.1044273  52.1573471
  30.4961383  18.2031961  51.2055354  30.8291331  18.9509424  52.4790637
  33.1778073  20.1620428  56.2720085  34.1321326  20.1304371  56.2050017
  32.9790596  19.7011052  57.0870311  33.7677455  18.7321544  58.8390883
  34.5870344  19.2265623  58.8625720  34.0414263  17.8153513  58.8108450
  43.5244051  11.1232297  48.2018838  42.6369906  11.4081947  47.9839033
  43.9398040  10.9626060  47.3546115  46.8758587  11.1478818  51.9173178
  47.6518977  11.6375270  52.1897794  46.1506721  11.5736872  52.3745047
  49.3131146  11.8606437  52.9747118  49.9075637  11.6202173  52.2640426
  49.3857730  11.1413568  53.6020655  31.5328302  25.7040048  53.2890283
  31.3982770  24.9440449  52.7228281  31.1160364  26.4280948  52.8219072
  42.6687265  20.8876971  42.2966858  43.3723115  21.0926974  42.9124514
  41.9449913  21.4553733  42.5615942  43.4985075  16.6386833  48.4169129
  43.4420276  17.0955384  47.5776761  44.0513417  15.8777517  48.2391971
  47.3089881  12.4276565  49.2419248  47.0526815  12.0273200  50.0727456
  46.6842749  13.1420359  49.1169387  51.6202219  15.1672638  51.7490539
  51.0601777  15.2365827  52.5222101  51.0145722  14.9913622  51.0290036
  34.6897427  26.6009365  53.5008726  34.5729812  27.5454797  53.3987416
  33.8689874  26.2982926  53.8894525  44.5773962  21.3259501  44.3465318
  45.4119566  20.8940699  44.1642793  44.4158305  21.1541514  45.2742213
  44.2319854  17.8291614  45.7121658  44.1768658  17.6635885  44.7710102
  43.6065909  18.5367647  45.8683847  29.0212369  13.0659678  59.5383080
  29.6671233  12.5558632  60.0270305  28.8129520  13.8028360  60.1126505
  41.5465761  20.1340526  65.0375220  42.4156921  20.3081178  64.6761855
  41.0672513  20.9534943  64.9150950  37.5415980   7.3299723  45.2906976
  37.5294649   8.2741563  45.4475247  38.4339402   7.1469868  44.9966437
  35.7151942  27.2537627  56.7164654  36.6179188  27.2861237  57.0331149
  35.4889312  26.3238078  56.7310990  37.4705544  26.0068613  53.3774733
  36.5201175  26.0070475  53.2639105  37.7738030  25.2601348  52.8610767
  41.3568099   3.9242500  49.5452913  40.5900495   3.3700986  49.6909595
  41.7678804   3.9964368  50.4067065  33.3609860  10.2127295  63.6358094
  34.2241322   9.8564100  63.8461419  32.7875271   9.8741190  64.3233498
  53.2058237  31.8429152  54.4420495  53.8436647  31.7235899  53.7383835
  53.0879080  32.7909996  54.5008447  50.0147943  31.7956580  54.3782020
  49.6766455  31.6797645  53.4902555  50.8837712  31.3947745  54.3583026
  45.8734759  33.6492056  50.3678911  45.3099624  33.5581993  49.5995199
  45.7587154  32.8291961  50.8481403  50.4967726  32.9491432  60.3368225
  50.4856367  32.5544230  59.4648729  50.6588366  32.2157504  60.9301997
  51.4534318  37.3163024  45.6793376  50.8022298  37.9017104  45.2927389
  52.2478681  37.8469219  45.7388413  45.3789945  34.4052161  46.0780510
  46.1520821  33.8581148  45.9393386  45.7315344  35.2696410  46.2894971
  47.2174988  35.7328543  59.2847409  46.9264854  36.6374174  59.1694076
  47.8531972  35.7745071  59.9991479  48.1431194  33.1105392  55.8748769
  48.7394767  32.8861414  55.1605732  48.2006166  32.3690137  56.4774217
  47.7156223  30.5644827  43.7098960  47.9681743  30.0426349  42.9482423
  46.7780782  30.4010973  43.8125644  52.7599506  29.5680606  51.5173703
  53.5462595  29.1500029  51.1664120  53.0238210  30.4726698  51.6855352
  52.9309583  35.0053456  46.2162360  52.2955416  35.0788082  46.9283265
  52.6006989  35.5947055  45.5381439  58.1607933  29.5055839  52.4206682
  58.8933105  28.9355056  52.6544511  57.4047288  29.1177439  52.8613187
  47.4352512  32.4672933  45.9123335  47.3188770  31.7917837  46.5804419
  47.5454771  31.9805307  45.0955488  49.7784052  31.9283080  49.6170024
  49.4142260  31.4013701  50.3282946  50.6351168  31.5381549  49.4436510
  55.6833353  23.2177413  56.8801290  55.3516678  24.0872824  56.6562505
  55.0878966  22.9013697  57.5595321  49.4189539  26.9572980  44.6131373
  49.5863942  27.8253216  44.9801844  49.2286709  27.1200262  43.6892662
  52.1764873  35.4189959  56.2797203  51.8765596  36.3214998  56.1713010
  51.8315932  35.1522142  57.1318356  45.6277354  31.8703756  52.3133907
  44.7027851  31.7379970  52.5211599  45.8761767  32.6497975  52.8103850
  55.5762016  27.9372499  53.9594640  54.6678894  27.8687908  53.6653401
  55.5249612  28.4144444  54.7876466  49.3978760  29.4130638  45.5978039
  49.2778386  29.8587688  46.4363520  48.7031349  29.7615955  45.0391578
  42.9886165  31.5137029  53.1477697  43.1178546  31.7671508  54.0617108
  42.3083616  32.1064737  52.8282352  49.6502882  29.3562145  61.9029538
  48.8736216  29.9156065  61.8932402  50.2893445  29.8418928  62.4244408
  57.4423663  26.1388937  55.7372514  56.7998043  26.4321471  55.0912309
  56.9378591  26.0241858  56.5425711  55.0963826  29.8852111  46.4258374
  56.0081683  30.1179497  46.2506071  54.5873474  30.4689155  45.8633452
  47.9049254  32.1647598  61.4647505  48.6463939  32.7032642  61.1882328
  47.1986240  32.7913887  61.6219056  53.3804594  34.3076739  60.0619666
  53.7887950  33.8659149  59.3174298  52.6581856  33.7329366  60.3153859
  49.7335664  29.2449345  57.4353223  50.5796859  29.6688759  57.5787872
  49.6734302  28.5882970  58.1291786  53.7033409  34.8677929  53.8171955
  53.0742271  35.0323643  53.1148023  53.3159071  35.2819539  54.5882919
  57.5822641  35.8032367  51.1716319  56.8973679  36.1831268  50.6213352
  57.6666490  36.4127694  51.9048267  52.8835110  26.9053714  59.0934397
  52.6396041  27.6595774  58.5568672  53.1595040  27.2839061  59.9281644
  54.8373572  33.4492326  57.7711662  55.0490468  34.0924086  57.0946043
  54.7903321  32.6154643  57.3033592  52.4399801  26.0610147  54.6748234
  51.5784280  26.3591400  54.9664972  52.4662236  26.2780546  53.7429267
  49.2561371  34.6052337  51.0822040  49.7199716  34.8840040  50.2926663
  48.9918169  33.7035782  50.8995131  46.1485452  34.1523819  54.0201803
  46.7186809  34.5811087  53.3819288  46.7393564  33.8706403  54.7185989
  48.1930257  30.7275490  47.8911605  48.8954300  31.1796533  48.3585532
  47.8610885  30.0859308  48.5191498  46.6410618  29.3187246  62.2662815
  46.0109279  30.0003527  62.4998211  46.5346706  29.2070328  61.3215953
  41.9355591  28.9859042  53.1928739  41.1454645  29.2416571  52.7168849
  42.4266838  29.8007380  53.2980779  55.9519400  36.3264281  55.9434020
  56.7736844  35.9244469  55.6616701  55.9481803  36.2232516  56.8950135
  43.8870336  29.3503622  50.1512216  43.0901499  29.4622316  50.6695711
  43.6595928  29.6890274  49.2853106  49.7176004  35.8748325  58.0994730
  49.7820436  36.3368732  58.9352902  49.0086928  35.2445690  58.2277040
  40.2193294  29.2389533  55.6243730  40.4701332  30.1236543  55.8901306
  40.7552842  29.0594134  54.8518821  64.0425393  32.6703030  52.2918991
  63.2889102  32.1010428  52.1362996  64.1772934  32.6365694  53.2389626
  45.9191361  23.6208012  64.6288066  45.5258307  23.0674211  65.3035710
  46.7357501  23.9318591  65.0194583  48.8359322  25.0365891  62.2208322
  49.5769035  25.6373044  62.1412785  49.0677245  24.2943529  61.6626365
  43.9800660  30.2222258  60.4986552  43.8654175  29.3207516  60.7993651
  43.1245178  30.4685955  60.1471368  51.0592498  38.1639999  62.0974053
  50.6156352  37.3776377  61.7794957  51.7209711  38.3519149  61.4317943
  45.8179619  39.6935800  56.6234731  46.3687044  39.5652864  55.8511725
  44.9791095  39.9930689  56.2729624  53.1573736  38.4442799  60.1255454
  53.1392211  39.2651680  59.6335723  54.0793656  38.3196874  60.3505595
  49.6146790  35.9586928  60.9678962  50.1475127  35.1975216  60.7378270
  49.0860871  35.6660580  61.7103117  52.7816485  21.0646994  56.4972604
  52.4380754  21.9548636  56.4211715  53.1495448  20.8748652  55.6342189
  52.7466768  31.0555605  45.0045039  52.2313391  31.8260210  45.2433426
  52.4744076  30.3820741  45.6278100  50.3313879  25.9005306  50.0630277
  49.4755475  25.5112156  49.8835916  50.7440830  25.9797267  49.2030063
  51.8613025  23.4351649  54.4621837  51.3577821  23.3981784  53.6489642
  52.1543632  24.3444392  54.5218494  48.1055911  23.5190379  53.4688019
  48.9708908  23.3233188  53.1093908  48.1733420  23.2900731  54.3957376
  57.7201042  33.8087960  46.9398213  56.9430485  33.4699119  46.4953375
  58.3992523  33.8140583  46.2653178  52.5353071  28.9282697  46.8304820
  52.2303206  29.2428846  47.6814963  53.4883513  29.0064117  46.8732153
  50.9799503  35.0872921  48.4797774  50.4520864  34.3525680  48.1671012
  50.4787005  35.8647597  48.2337743  55.9592349  33.2821941  53.5964821
  55.3016023  33.9721203  53.6844949  56.7632748  33.6718373  53.9398807
  45.7118230  25.7492587  50.8404386  46.2861982  25.5267768  50.1077579
  46.2989213  25.8181281  51.5932987  54.7697807  31.6366314  51.6468762
  55.2829689  32.2696306  52.1490472  55.4199031  31.0367509  51.2812122
  46.0387817  27.7797048  44.8600271  45.2025130  28.1171734  45.1809546
  45.8992587  27.6446028  43.9227408  48.0140898  22.6233836  49.5679455
  47.3605310  22.3082853  48.9436070  47.9721372  22.0009576  50.2939278
  49.1252103  32.9053131  41.4832747  48.2179165  32.6742384  41.6823896
  49.6223135  32.1090750  41.6706729  51.2478638  29.1115769  53.8927103
  50.3301200  29.3330716  53.7348791  51.6638782  29.1862080  53.0338810
  52.0313686  30.5107185  49.0229783  52.7785505  31.0228582  48.7136905
  52.3005276  30.1891238  49.8834177  50.3040336  33.0065726  46.0056737
  49.3951556  32.7224759  46.1029207  50.3335420  33.4264804  45.1460044
  55.5359604  36.6172315  49.7747905  55.0821931  35.7763225  49.8313095
  54.9053570  37.2533714  50.1122685  54.4792523  27.5464301  51.0048572
  53.7415280  27.0341687  51.3358815  54.7319297  27.1064683  50.1931849
  53.9792543  38.4548812  50.7097723  54.2715517  39.0153869  49.9910089
  54.4891163  38.7477373  51.4650882  54.5804151  20.3240553  51.5990342
  54.8863027  19.4637917  51.3116257  55.3056755  20.9158173  51.3989336
  40.8728507  30.7271240  49.9871940  40.6752906  30.1340601  49.2623006
  40.3175171  30.4223450  50.7047878  48.8525230  30.6194346  52.1066533
  48.9073840  29.6668183  52.0309009  48.0416432  30.7753785  52.5907831
  50.0016424  34.5474469  43.3444816  49.5635854  33.8310328  42.8850453
  50.7426865  34.7750584  42.7829907  46.7917590  29.2371406  49.8656912
  45.9785456  29.5365577  50.2722104  47.2876584  28.8427095  50.5831394
  52.3891802  29.7013231  58.6971805  52.7441190  29.9284704  59.5566271
  53.0363933  30.0331607  58.0749061  58.1189539  32.8231666  49.4021134
  57.9807437  33.0133262  48.4742324  57.7625758  33.5851049  49.8589186
  46.2831665  26.8089762  55.4818146  46.9231044  26.6678521  54.7841110
  45.4509196  26.5224275  55.1056748  58.1458918  34.8908193  54.4132406
  58.5795425  34.7983483  55.2615460  58.8590499  34.8665694  53.7752422
  51.8786813  38.4910288  55.9465507  51.9323836  39.0601224  56.7143222
  51.0101595  38.6612173  55.5819544  43.3674732  30.2535274  47.6712892
  42.4372320  30.1919729  47.8882854  43.4632204  29.7311227  46.8749533
  43.2860281  26.7790087  50.2591133  43.5467099  27.6935420  50.1500294
  44.1077454  26.3114529  50.4087746  44.7585207  28.1927844  57.4289958
  45.4308260  27.9845206  56.7802607  43.9314993  27.9949930  56.9895190
  59.0074468  34.9331894  56.9465291  59.2010358  35.8377705  57.1924566
  58.9075086  34.4739313  57.7803876  50.6610779  24.8189785  59.4455619
  50.0138694  25.5179734  59.3520095  51.4311794  25.2525929  59.8131867
  54.0689577  35.0838637  62.5206172  53.9175083  34.8549189  61.6036256
  54.0594256  36.0409238  62.5337517  50.8374913  32.6570550  57.5052438
  51.7666973  32.8081709  57.3321406  50.4165943  32.7454570  56.6501085
  49.6363245  36.6821214  55.2750976  49.4974331  36.3139998  56.1476914
  48.8477841  37.1968853  55.1034934  51.1868460  36.0602817  52.6639814
  50.8518293  36.0203587  53.5597464  50.6872406  35.3947533  52.1910224
  45.1612704  31.4670447  58.1892395  45.0232502  30.7350686  58.7903934
  46.0717627  31.3779347  57.9076583  54.1227652  33.4058851  42.9376873
  53.5056822  32.6805679  42.8409926  53.6544140  34.1668211  42.5943948
  47.7895005  31.1790406  57.6776075  48.4994623  30.5383598  57.6362693
  47.7464313  31.4303301  58.6002255  55.7781783  38.1157759  60.5982654
  55.7194329  37.4316980  59.9313237  56.1801302  38.8576749  60.1463280
  46.5023939  28.1655624  59.4971714  45.9661296  27.7146362  60.1493310
  45.9140647  28.3001533  58.7542178  44.7972482  44.9319673  53.3916373
  45.0369080  45.5638197  54.0695391  43.9541679  44.5807713  53.6781732
  55.7799191  36.0797343  58.8296634  54.8925969  35.7423265  58.9523032
  56.3497742  35.3480375  59.0665399  37.4328338  32.4121435  52.1539685
  38.1199378  32.0983165  51.5660700  37.2776466  33.3162800  51.8806936
  42.2363060  27.3011632  56.5824709  42.1521249  26.6937301  55.8475119
  41.4145766  27.7920650  56.5834205  49.3100344  40.7398796  55.7957877
  49.2370515  41.5453767  56.3077181  48.8677737  40.9390762  54.9705898
  52.4086774  25.7865195  51.9494904  52.9055473  25.0335158  51.6295974
  51.6373755  25.8229512  51.3838113  60.2616531  31.4905561  53.5913195
  60.2506407  32.3730276  53.2207128  59.3933911  31.1377112  53.3967732
  51.7699028  40.6385630  57.9516035  52.4827000  41.2733095  57.8791937
  51.2789056  40.7349496  57.1356037  53.4916554  34.5436882  49.5233327
  52.5572833  34.6638345  49.3538031  53.6693223  33.6409349  49.2593337
  48.9921742  27.9282578  51.6766588  48.6219530  27.3753619  52.3647494
  49.4880835  27.3240712  51.1241588  56.8789106  30.3854202  50.0583361
  57.3449558  31.2182193  49.9843664  57.3296606  29.9199183  50.7628620
  46.8210941  38.3880073  58.7721606  47.5220401  39.0216556  58.9251000
  46.3506056  38.7294805  58.0117245  54.9465337  36.7298023  47.0569513
  55.2225181  36.6154618  47.9663387  54.0769836  36.3315508  47.0181686
  54.8505769  22.7534789  54.0974263  53.9368848  22.9839016  54.2656469
  55.2798870  22.8373233  54.9488295  54.6212227  30.9424681  56.5974157
  53.9683677  31.1900588  55.9426609  54.9992607  30.1288819  56.2636634
  50.6699800  31.6844492  63.0840194  49.9940437  31.5838621  63.7542569
  51.4927434  31.5283705  63.5476191  42.4178659  37.9216428  55.7052709
  43.0032096  37.1760116  55.8380613  42.2203498  38.2320385  56.5889373
  37.0096314  30.4922028  54.4257152  37.0480413  29.9585619  55.2194270
  36.5036607  29.9657234  53.8068129  49.4122583  42.9911419  57.3197810
  49.9640891  43.1543041  58.0846895  49.7528776  43.5815857  56.6477834
  44.3887076  25.3386569  57.9219694  44.4528403  26.2001400  57.5097092
  44.3254196  24.7260571  57.1892053  43.8639349  27.4109702  61.5692729
  44.4911387  27.0286779  62.1830253  43.0067268  27.1923903  61.9348421
  54.2633457  37.8172677  63.1746464  54.8073361  38.4302635  62.6801419
  53.6820302  38.3752255  63.6913477  40.6404891  29.2186131  47.5011083
  40.9358333  28.3096809  47.4478137  39.7392927  29.1973870  47.1792086
  52.5490970  40.9393395  54.3061492  52.4242110  40.1383135  53.7972437
  53.2070061  41.4339588  53.8175462  44.1699138  27.2942127  53.4838632
  43.4485724  27.9078095  53.3446105  44.9592394  27.8299892  53.4055278
  54.6125879  38.7402415  55.9341042  53.6656214  38.6207766  55.8619369
  54.9608652  37.8524913  56.0167303  46.9725452  24.6296554  59.7579284
  47.4959854  24.8758850  60.5205593  46.7537785  25.4616588  59.3382421
  42.3692733  26.9000228  47.6250409  42.0405439  26.0197607  47.4425514
  42.7232104  26.8447897  48.5126798  51.6172312  38.5355131  52.1345394
  51.4697274  37.6071838  52.3152964  52.4425805  38.5575222  51.6502469
  45.4834556  27.1873198  47.9925886  45.8230629  27.7159119  47.2704495
  45.9306677  27.5253604  48.7684453  55.2206434  39.3583690  53.2210267
  56.1452981  39.1526551  53.0834718  55.0521737  39.1100091  54.1299608
  48.1777997  25.5710249  57.4428954  47.8374817  24.7718062  57.8449634
  47.4717003  25.8711960  56.8705787  48.8294469  22.6559561  55.8956277
  49.6520538  22.1820039  55.7735168  49.0732532  23.4350045  56.3954964
  47.4702703  25.6847820  46.1919179  48.1911066  26.0629072  45.6882896
  46.8468007  26.4036696  46.2954157  51.6133826  26.3892969  47.1277511
  51.8297441  27.2717607  46.8266340  51.1327893  25.9979182  46.3983153
  46.3533048  29.3478682  53.7048256  46.2077628  29.6618985  54.5972537
  45.8758251  29.9663582  53.1519155  48.2129430  26.3381230  53.7529145
  48.1990999  25.4422323  53.4161443  48.9301859  26.3451894  54.3867432
  50.0655561  26.7718570  55.7982273  49.8073339  27.6935641  55.7966603
  49.5340602  26.3749005  56.4882737  55.0101750  39.8769357  48.5772358
  55.1838627  39.3115780  47.8246211  55.5030641  40.6770252  48.3951848
  40.8278710  31.8884026  56.6435917  40.2832178  32.6643834  56.7756191
  41.7058060  32.2354831  56.4855039  47.6166326  25.2195610  49.0216716
  47.7382238  24.2912256  49.2207603  47.3268369  25.2334296  48.1095031
  50.4857517  22.9050521  52.1583435  50.5079214  22.9689854  51.2035415
  50.9025576  22.0655029  52.3523942  60.8641141  32.6405780  50.1962658
  61.3072287  31.8913105  49.7981781  59.9867651  32.6315916  49.8136390
  55.9976922  39.1936122  45.6769257  56.6927827  39.8142814  45.8956571
  56.3400073  38.3431473  45.9521634  41.6144732  31.0153923  59.5366074
  40.8726468  31.1636558  60.1230704  41.2937476  31.2762188  58.6732823
  57.8968346  36.6435827  47.2056587  58.4219670  36.9823100  46.4805907
  57.8090698  35.7082842  47.0219722  49.5588394  40.5569901  59.3346464
  49.8675521  40.3119048  60.2069164  50.3563876  40.7616539  58.8465334
  47.0282878  38.2545819  53.6374142  46.4062888  37.5916524  53.3376370
  47.6987745  38.2806951  52.9547790  47.1007406  26.7327607  63.2306648
  47.1495561  27.6089730  62.8484418  47.6429920  26.1905001  62.6578291
  57.5862252  37.2768731  62.5107785  56.7957795  37.2592870  61.9712285
  57.3495606  37.8157024  63.2656822  57.7060127  34.1261197  59.8240514
  57.7558132  33.9611205  60.7656037  57.5974050  33.2588456  59.4338395
  54.9963889  30.1092125  61.1399821  55.8973752  29.9698590  60.8483818
  55.0711864  30.2746580  62.0797998  49.3306694  27.4858980  59.9853007
  48.4610004  27.7792546  59.7135595  49.5666175  28.0699425  60.7060271
  59.2078323  36.5458139  60.0682535  58.9163132  36.9088119  60.9045996
  58.5950455  35.8325147  59.8895867  60.4074006  34.1111018  52.5885106
  61.2420897  34.5500822  52.7522666  60.5433135  33.6349672  51.7693351
  57.4565512  31.6690753  58.5362593  57.9319633  31.8618400  57.7281445
  56.5331077  31.7249939  58.2905977  44.3449018  32.8314920  48.1193672
  44.0995060  31.9277250  48.3173882  44.5144933  32.8332071  47.1773150
  52.0345728  23.7038597  57.5018427  52.5527672  24.4399624  57.1764916
  51.6800861  24.0102590  58.3365186  43.6144666  28.5643278  45.6179833
  42.9213911  28.6387633  44.9619869  43.3696418  27.8003622  46.1401350
  52.2858322  20.1238879  53.0219324  52.5660076  19.4562068  53.6479750
  53.0708929  20.3167975  52.5093988  56.1567181  28.5456513  56.7690899
  57.1084604  28.6454611  56.7903123  55.9870631  27.7534782  57.2788983
  54.1781560  25.6312097  56.9550300  53.5831492  25.9117109  56.2596789
  53.8931257  26.1205997  57.7267041  55.9377067  38.9000894  42.6756880
  55.8590699  38.5660757  43.5692638  56.7586734  39.3922662  42.6748352
  58.6355259  31.7662633  55.8833199  58.6031579  30.8278634  56.0692882
  59.2455882  31.8446670  55.1499024  50.4738589  30.6358686  41.9260403
  51.4197694  30.5064894  41.9948821  50.0952834  29.8973348  42.4029831
  58.7849747  28.5573676  55.9291482  58.2688796  27.7732133  55.7421411
  59.6689696  28.2292393  56.0938001  56.4460474  22.3014692  51.8887294
  56.2485295  21.9929780  52.7730626  57.0560179  23.0276331  52.0185224
  64.4531808  32.8278640  55.0239235  65.1835197  32.5663928  55.5846939
  63.8438754  32.0907362  55.0641303  62.5347105  30.9686502  55.6213687
  61.8080269  30.8342467  55.0130178  62.1194392  31.2763331  56.4270405
  50.3577282  34.6876432  63.3861060  51.2780291  34.8655031  63.5801106
  50.3226865  33.7432477  63.2340759  48.6581507  28.5608662  41.8615288
  47.7512962  28.2641775  41.9378002  48.9357488  28.2638480  40.9949574
  39.5759447  29.8815026  52.3114334  39.2562231  29.0280334  52.0188708
  39.0292875  30.0963604  53.0672302  43.3539354  32.5977467  56.0283841
  43.5725364  33.5294575  56.0471875  43.7665128  32.2385441  56.8138645
  50.2743572  23.1045552  48.0159529  49.4644301  22.7592637  48.3914775
  50.9627989  22.7953096  48.6047141  52.2034121  22.1823599  49.6383826
  52.7565159  22.6019052  50.2973849  52.4404207  21.2559347  49.6806782
  48.2267220  28.1710673  65.4186590  48.1263947  29.1205030  65.3498681
  48.0088762  27.8428911  64.5462660  47.4280291  25.4195598  42.0027267
  48.2899455  25.7450496  42.2623084  47.6130635  24.6327094  41.4900333
  39.4447707  33.5017937  54.2807456  38.7511178  33.0871890  53.7677410
  40.1920698  33.5438474  53.6840875  55.5812928  24.2924124  49.1462490
  55.0011597  24.9508928  48.7640543  55.3148860  23.4701469  48.7349908
  54.0316494  23.6929182  51.3483810  54.5316272  23.8045716  50.5398129
  54.6752102  23.3890235  51.9884619  48.0898490  31.6007811  64.2351651
  47.6065572  32.4008172  64.4415540  48.1759429  31.6115756  63.2819095
  44.0171827  35.4912346  56.2720085  44.9715081  35.4596288  56.2050017
  43.8184351  35.0302970  57.0870311  44.6071209  34.0613462  58.8390883
  45.4264098  34.5557541  58.8625720  44.8808017  33.1445430  58.8108450
  54.3637806  26.4524214  48.2018838  53.4763661  26.7373865  47.9839033
  54.7791795  26.2917978  47.3546115  57.7152342  26.4770735  51.9173178
  58.4912732  26.9667188  52.1897794  56.9900476  26.9028790  52.3745047
  60.1524900  27.1898355  52.9747118  60.7469391  26.9494091  52.2640426
  60.2251484  26.4705485  53.6020655  42.3722056  41.0331966  53.2890283
  42.2376524  40.2732366  52.7228281  41.9554118  41.7572865  52.8219072
  53.5081019  36.2168889  42.2966858  54.2116869  36.4218892  42.9124514
  52.7843668  36.7845651  42.5615942  54.3378829  31.9678750  48.4169129
  54.2814031  32.4247302  47.5776761  54.8907172  31.2069435  48.2391971
  58.1483635  27.7568482  49.2419248  57.8920570  27.3565118  50.0727456
  57.5236503  28.4712276  49.1169387  62.4595973  30.4964556  51.7490539
  61.8995531  30.5657745  52.5222101  61.8539477  30.3205540  51.0290036
  45.5291182  41.9301283  53.5008726  45.4123566  42.8746715  53.3987416
  44.7083628  41.6274844  53.8894525  55.4167717  36.6551418  44.3465318
  56.2513320  36.2232617  44.1642793  55.2552059  36.4833432  45.2742213
  55.0713609  33.1583532  45.7121658  55.0162412  32.9927803  44.7710102
  54.4459664  33.8659565  45.8683847  39.8606124  28.3951596  59.5383080
  40.5064987  27.8850550  60.0270305  39.6523275  29.1320278  60.1126505
  52.3859516  35.4632443  65.0375220  53.2550676  35.6373096  64.6761855
  51.9066267  36.2826860  64.9150950  48.3809734  22.6591641  45.2906976
  48.3688404  23.6033481  45.4475247  49.2733156  22.4761786  44.9966437
  46.5545696  42.5829545  56.7164654  47.4572943  42.6153155  57.0331149
  46.3283066  41.6529995  56.7310990  48.3099298  41.3360531  53.3774733
  47.3594929  41.3362393  53.2639105  48.6131784  40.5893266  52.8610767
  52.1961854  19.2534417  49.5452913  51.4294249  18.6992904  49.6909595
  52.6072559  19.3256286  50.4067065  44.2003615  25.5419213  63.6358094
  45.0635076  25.1856018  63.8461419  43.6269025  25.2033108  64.3233498
  64.0451992  47.1721069  54.4420495  64.6830402  47.0527817  53.7383835
  63.9272834  48.1201913  54.5008447  60.8541698  47.1248498  54.3782020
  60.5160209  47.0089562  53.4902555  61.7231466  46.7239663  54.3583026
  56.7128514  48.9783974  50.3678911  56.1493379  48.8873911  49.5995199
  56.5980909  48.1583878  50.8481403  61.3361481  48.2783349  60.3368225
  61.3250122  47.8836148  59.4648729  61.4982120  47.5449422  60.9301997
  54.2592946  50.4735166  53.2063131  55.0514237  50.1325990  52.7909431
  54.4989596  50.5830141  54.1265285  62.2928072  52.6454942  45.6793376
  61.6416052  53.2309022  45.2927389  63.0872435  53.1761137  45.7388413
  56.2183699  49.7344079  46.0780510  56.9914575  49.1873066  45.9393386
  56.5709098  50.5988328  46.2894971  58.0568742  51.0620461  59.2847409
  57.7658608  51.9666092  59.1694076  58.6925726  51.1036989  59.9991479
  58.9824949  48.4397310  55.8748769  59.5788521  48.2153332  55.1605732
  59.0399920  47.6982055  56.4774217  58.5549977  45.8936745  43.7098960
  58.8075498  45.3718266  42.9482423  57.6174536  45.7302890  43.8125644
  63.5993260  44.8972523  51.5173703  64.3856349  44.4791946  51.1664120
  63.8631964  45.8018615  51.6855352  63.7703337  50.3345374  46.2162360
  63.1349170  50.4080000  46.9283265  63.4400744  50.9238972  45.5381439
  69.0001687  44.8347756  52.4206682  69.7326859  44.2646973  52.6544511
  68.2441043  44.4469357  52.8613187  58.2746266  47.7964851  45.9123335
  58.1582524  47.1209754  46.5804419  58.3848526  47.3097225  45.0955488
  60.6177807  47.2574998  49.6170024  60.2536014  46.7305619  50.3282946
  61.4744923  46.8673467  49.4436510  66.5227108  38.5469331  56.8801290
  66.1910432  39.4164742  56.6562505  65.9272721  38.2305615  57.5595321
  60.2583294  42.2864898  44.6131373  60.4257696  43.1545134  44.9801844
  60.0680463  42.4492179  43.6892662  63.0158627  50.7481877  56.2797203
  62.7159350  51.6506915  56.1713010  62.6709687  50.4814060  57.1318356
  56.4671109  47.1995673  52.3133907  55.5421605  47.0671888  52.5211599
  56.7155522  47.9789893  52.8103850  66.4155771  43.2664417  53.9594640
  65.5072648  43.1979825  53.6653401  66.3643367  43.7436362  54.7876466
  60.2372515  44.7422555  45.5978039  60.1172140  45.1879606  46.4363520
  59.5425103  45.0907873  45.0391578  53.8279920  46.8428947  53.1477697
  53.9572301  47.0963426  54.0617108  53.1477371  47.4356655  52.8282352
  57.9979407  57.5126197  49.2468171  57.9203437  58.4634022  49.3256651
  57.3941050  57.1672069  49.9043097  60.4896637  44.6854062  61.9029538
  59.7129971  45.2447983  61.8932402  61.1287200  45.1710845  62.4244408
  68.2817417  41.4680855  55.7372514  67.6391798  41.7613388  55.0912309
  67.7772346  41.3533776  56.5425711  65.9357581  45.2144028  46.4258374
  66.8475437  45.4471415  46.2506071  65.4267228  45.7981073  45.8633452
  58.7443009  47.4939516  61.4647505  59.4857693  48.0324560  61.1882328
  58.0379994  48.1205804  61.6219056  64.2198349  49.6368656  60.0619666
  64.6281705  49.1951067  59.3174298  63.4975610  49.0621284  60.3153859
  60.5729419  44.5741263  57.4353223  61.4190614  44.9980677  57.5787872
  60.5128056  43.9174887  58.1291786  64.5427163  50.1969847  53.8171955
  63.9136026  50.3615561  53.1148023  64.1552825  50.6111456  54.5882919
  68.4216395  51.1324285  51.1716319  67.7367433  51.5123186  50.6213352
  68.5060244  51.7419611  51.9048267  63.7228864  42.2345631  59.0934397
  63.4789796  42.9887692  58.5568672  63.9988795  42.6130979  59.9281644
  65.6767327  48.7784244  57.7711662  65.8884222  49.4216004  57.0946043
  65.6297075  47.9446560  57.3033592  63.2793556  41.3902064  54.6748234
  62.4178035  41.6883318  54.9664972  63.3055990  41.6072463  53.7429267
  60.0955125  49.9344255  51.0822040  60.5593471  50.2131958  50.2926663
  59.8311923  49.0327699  50.8995131  56.9879206  49.4815736  54.0201803
  57.5580563  49.9103005  53.3819288  57.5787318  49.1998321  54.7185989
  59.0324011  46.0567407  47.8911605  59.7348055  46.5088451  48.3585532
  58.7004640  45.4151226  48.5191498  57.4804373  44.6479164  62.2662815
  56.8503033  45.3295445  62.4998211  57.3740461  44.5362246  61.3215953
  52.7749345  44.3150960  53.1928739  51.9848399  44.5708488  52.7168849
  53.2660593  45.1299298  53.2980779  66.7913155  51.6556199  55.9434020
  67.6130598  51.2536386  55.6616701  66.7875558  51.5524433  56.8950135
  54.7264091  44.6795539  50.1512216  53.9295254  44.7914233  50.6695711
  54.4989683  45.0182191  49.2853106  60.5569758  51.2040242  58.0994730
  60.6214191  51.6660650  58.9352902  59.8480682  50.5737607  58.2277040
  51.0587048  44.5681450  55.6243730  51.3095087  45.4528460  55.8901306
  51.5946597  44.3886052  54.8518821  74.8819148  47.9994948  52.2918991
  74.1282856  47.4302346  52.1362996  75.0166689  47.9657612  53.2389626
  60.2717776  52.8708350  47.9673710  60.1363451  53.7159886  48.3958558
  60.8127588  53.0727628  47.2039644  56.7585115  38.9499930  64.6288066
  56.3652061  38.3966128  65.3035710  57.5751256  39.2610508  65.0194583
  53.7247173  50.3883788  48.5401636  54.2371694  51.1827038  48.6907200
  54.3769886  49.6910078  48.4735237  55.5342058  53.5049544  50.6224389
  55.7108686  54.4267509  50.4345373  56.3298891  53.1907963  51.0518769
  59.6753076  40.3657809  62.2208322  60.4162790  40.9664962  62.1412785
  59.9070999  39.6235447  61.6626365  54.8194414  45.5514176  60.4986552
  54.7047930  44.6499433  60.7993651  53.9638932  45.7977873  60.1471368
  61.8986252  53.4931916  62.0974053  61.4550106  52.7068295  61.7794957
  62.5603466  53.6811067  61.4317943  56.6573373  55.0227718  56.6234731
  57.2080798  54.8944781  55.8511725  55.8184849  55.3222607  56.2729624
  63.9967490  53.7734716  60.1255454  63.9785966  54.5943597  59.6335723
  64.9187410  53.6488792  60.3505595  60.4540544  51.2878846  60.9678962
  60.9868881  50.5267134  60.7378270  59.9254626  50.9952498  61.7103117
  63.6210239  36.3938912  56.4972604  63.2774509  37.2840553  56.4211715
  63.9889202  36.2040569  55.6342189  63.5860522  46.3847523  45.0045039
  63.0707146  47.1552128  45.2433426  63.3137831  45.7112659  45.6278100
  61.1707633  41.2297224  50.0630277  60.3149229  40.8404074  49.8835916
  61.5834585  41.3089184  49.2030063  62.7006780  38.7643567  54.4621837
  62.1971575  38.7273702  53.6489642  62.9937387  39.6736310  54.5218494
  58.9449666  38.8482297  53.4688019  59.8102662  38.6525105  53.1093908
  59.0127175  38.6192648  54.3957376  68.5594796  49.1379878  46.9398213
  67.7824239  48.7991037  46.4953375  69.2386277  49.1432501  46.2653178
  63.3746825  44.2574615  46.8304820  63.0696961  44.5720764  47.6814963
  64.3277267  44.3356035  46.8732153  61.8193257  50.4164838  48.4797774
  61.2914619  49.6817598  48.1671012  61.3180760  51.1939515  48.2337743
  66.7986103  48.6113859  53.5964821  66.1409778  49.3013120  53.6844949
  67.6026502  49.0010291  53.9398807  56.5511985  41.0784505  50.8404386
  57.1255737  40.8559686  50.1077579  57.1382967  41.1473199  51.5932987
  65.6091562  46.9658231  51.6468762  66.1223444  47.5988223  52.1490472
  66.2592786  46.3659427  51.2812122  56.8781572  43.1088966  44.8600271
  56.0418884  43.4463652  45.1809546  56.7386341  42.9737945  43.9227408
  58.8534652  37.9525753  49.5679455  58.1999065  37.6374771  48.9436070
  58.8115127  37.3301494  50.2939278  59.9645857  48.2345049  41.4832747
  59.0572919  48.0034302  41.6823896  60.4616889  47.4382668  41.6706729
  62.8713936  56.9442556  44.4029433  62.1975635  57.2474253  45.0114391
  63.2579758  57.7471636  44.0534890  62.0872393  44.4407687  53.8927103
  61.1694954  44.6622634  53.7348791  62.5032536  44.5153997  53.0338810
  62.8707441  45.8399103  49.0229783  63.6179260  46.3520500  48.7136905
  63.1399030  45.5183155  49.8834177  61.1434091  48.3357643  46.0056737
  60.2345310  48.0516676  46.1029207  61.1729175  48.7556722  45.1460044
  66.3753358  51.9464233  49.7747905  65.9215685  51.1055143  49.8313095
  65.7447325  52.5825631  50.1122685  65.3186278  42.8756219  51.0048572
  64.5809035  42.3633605  51.3358815  65.5713051  42.4356601  50.1931849
  64.8186297  53.7840730  50.7097723  65.1109272  54.3445787  49.9910089
  65.3284918  54.0769291  51.4650882  65.4197905  35.6532471  51.5990342
  65.7256782  34.7929834  51.3116257  66.1450510  36.2450091  51.3989336
  51.7122261  46.0563158  49.9871940  51.5146661  45.4632518  49.2623006
  51.1568925  45.7515368  50.7047878  59.6918985  45.9486264  52.1066533
  59.7467595  44.9960100  52.0309009  58.8810187  46.1045703  52.5907831
  60.8410179  49.8766387  43.3444816  60.4029608  49.1602246  42.8850453
  61.5820619  50.1042502  42.7829907  57.6311345  44.5663324  49.8656912
  56.8179210  44.8657494  50.2722104  58.1270339  44.1719013  50.5831394
  59.7819923  54.5621081  51.7991176  59.7396101  54.7881927  50.8699708
  60.6982621  54.3284455  51.9476977  63.2285556  45.0305148  58.6971805
  63.5834944  45.2576621  59.5566271  63.8757688  45.3623525  58.0749061
  68.9583293  48.1523584  49.4021134  68.8201192  48.3425180  48.4742324
  68.6019512  48.9142967  49.8589186  57.1225419  42.1381679  55.4818146
  57.7624799  41.9970438  54.7841110  56.2902950  41.8516193  55.1056748
  68.9852673  50.2200111  54.4132406  69.4189180  50.1275400  55.2615460
  69.6984254  50.1957612  53.7752422  57.8985723  51.4384110  51.5953139
  58.6926322  50.9434430  51.3935714  57.1877416  50.9101973  51.2320845
  62.7180568  53.8202205  55.9465507  62.7717590  54.3893142  56.7143222
  61.8495349  53.9904090  55.5819544  54.1254036  42.1082004  50.2591133
  54.3860853  43.0227338  50.1500294  54.9471208  41.6406447  50.4087746
  55.5978961  43.5219761  57.4289958  56.2702015  43.3137124  56.7802607
  54.7708748  43.3241847  56.9895190  69.8468223  50.2623812  56.9465291
  70.0404113  51.1669622  57.1924566  69.7468841  49.8031231  57.7803876
  61.5004533  40.1481702  59.4455619  60.8532448  40.8471652  59.3520095
  62.2705549  40.5817846  59.8131867  64.9083331  50.4130555  62.5206172
  64.7568838  50.1841106  61.6036256  64.8988011  51.3701156  62.5337517
  61.6768668  47.9862467  57.5052438  62.6060728  48.1373627  57.3321406
  61.2559698  48.0746488  56.6501085  60.4756999  52.0113132  55.2750976
  60.3368085  51.6431916  56.1476914  59.6871596  52.5260771  55.1034934
  61.0705151  57.1122228  46.6176513  61.2456907  56.6410271  47.4322135
  60.3837939  57.7387994  46.8457773  62.0262215  51.3894734  52.6639814
  61.6912047  51.3495504  53.5597464  61.5266160  50.7239450  52.1910224
  56.0006458  46.7962364  58.1892395  55.8626256  46.0642603  58.7903934
  56.9111382  46.7071265  57.9076583  64.9621406  48.7350769  42.9376873
  64.3450577  48.0097597  42.8409926  64.4937895  49.4960129  42.5943948
  58.6288759  46.5082324  57.6776075  59.3388378  45.8675516  57.6362693
  58.5858067  46.7595219  58.6002255  66.6175538  53.4449677  60.5982654
  66.5588084  52.7608897  59.9313237  67.0195056  54.1868667  60.1463280
  57.3417693  43.4947542  59.4971714  56.8055050  43.0438280  60.1493310
  56.7534402  43.6293450  58.7542178  55.6366237  60.2611591  53.3916373
  55.8762835  60.8930115  54.0695391  54.7935433  59.9099631  53.6781732
  56.7519952  42.9536193  42.0598178  55.8749418  42.8324994  41.6960424
  57.2277705  42.1622271  41.8077066  66.6192945  51.4089261  58.8296634
  65.7319724  51.0715183  58.9523032  67.1891496  50.6772292  59.0665399
  53.0756814  42.6303549  56.5824709  52.9915003  42.0229219  55.8475119
  52.2539521  43.1212568  56.5834205  60.1494098  56.0690713  55.7957877
  60.0764270  56.8745685  56.3077181  59.7071492  56.2682679  54.9705898
  59.9383878  55.3062483  49.3060698  59.1551400  55.8484164  49.3998923
  60.6376623  55.8236463  49.7054939  63.2480528  41.1157113  51.9494904
  63.7449228  40.3627075  51.6295974  62.4767510  41.1521430  51.3838113
  71.1010286  46.8197478  53.5913195  71.0900162  47.7022194  53.2207128
  70.2327665  46.4669029  53.3967732  62.6092782  55.9677547  57.9516035
  63.3220754  56.6025012  57.8791937  62.1182811  56.0641413  57.1356037
  64.3310309  49.8728800  49.5233327  63.3966588  49.9930263  49.3538031
  64.5086977  48.9701267  49.2593337  59.8315497  43.2574496  51.6766588
  59.4613284  42.7045536  52.3647494  60.3274589  42.6532629  51.1241588
  67.7182860  45.7146119  50.0583361  68.1843312  46.5474111  49.9843664
  68.1690361  45.2491101  50.7628620  57.6604696  53.7171991  58.7721606
  58.3614155  54.3508474  58.9251000  57.1899811  54.0586722  58.0117245
  65.7859091  52.0589941  47.0569513  66.0618935  51.9446535  47.9663387
  64.9163590  51.6607426  47.0181686  65.6899523  38.0826706  54.0974263
  64.7762603  38.3130933  54.2656469  66.1192624  38.1665150  54.9488295
  65.4605982  46.2716598  56.5974157  64.8077432  46.5192506  55.9426609
  65.8386361  45.4580737  56.2636634  62.4213155  56.3076292  50.7002327
  62.6035550  55.4897947  51.1630079  63.2446141  56.5243984  50.2627217
  62.7555321  55.2344477  47.9617375  63.2843087  54.7236931  47.3487537
  63.0183540  54.9187007  48.8262908  61.5093555  47.0136409  63.0840194
  60.8334192  46.9130539  63.7542569  62.3321188  46.8575623  63.5476191
  53.2572414  53.2508346  55.7052709  53.8425850  52.5052034  55.8380613
  53.0597252  53.5612303  56.5889373  56.1111069  56.2859593  50.7215151
  55.4421444  56.7705721  50.2379191  55.9723939  56.5328814  51.6358530
  47.8490068  45.8213946  54.4257152  47.8874168  45.2877537  55.2194270
  47.3430361  45.2949152  53.8068129  60.2516337  58.3203337  57.3197810
  60.8034645  58.4834958  58.0846895  60.5922531  58.9107775  56.6477834
  55.2280831  40.6678487  57.9219694  55.2922157  41.5293318  57.5097092
  55.1647951  40.0552488  57.1892053  54.7033103  42.7401619  61.5692729
  55.3305142  42.3578696  62.1830253  53.8461022  42.5215821  61.9348421
  65.1027212  53.1464594  63.1746464  65.6467116  53.7594553  62.6801419
  64.5214057  53.7044173  63.6913477  63.3884725  56.2685312  54.3061492
  63.2635864  55.4675052  53.7972437  64.0463816  56.7631506  53.8175462
  55.0092893  42.6234045  53.4838632  54.2879479  43.2370013  53.3446105
  55.7986149  43.1591810  53.4055278  65.4519633  54.0694332  55.9341042
  64.5049969  53.9499684  55.8619369  65.8002406  53.1816830  56.0167303
  57.8119206  39.9588471  59.7579284  58.3353608  40.2050768  60.5205593
  57.5931540  40.7908506  59.3382421  62.4566066  53.8647049  52.1345394
  62.3091029  52.9363756  52.3152964  63.2819560  53.8867139  51.6502469
  56.3228311  42.5165116  47.9925886  56.6624383  43.0451037  47.2704495
  56.7700431  42.8545522  48.7684453  66.0600188  54.6875607  53.2210267
  66.9846736  54.4818469  53.0834718  65.8915492  54.4392009  54.1299608
  59.0171751  40.9002166  57.4428954  58.6768572  40.1009980  57.8449634
  58.3110758  41.2003877  56.8705787  59.6688223  37.9851479  55.8956277
  60.4914293  37.5111957  55.7735168  59.9126287  38.7641963  56.3954964
  58.3096458  41.0139737  46.1919179  59.0304820  41.3920990  45.6882896
  57.6861762  41.7328614  46.2954157  62.4527581  41.7184886  47.1277511
  62.6691195  42.6009524  46.8266340  61.9721648  41.3271100  46.3983153
  57.1926802  44.6770600  53.7048256  57.0471383  44.9910903  54.5972537
  56.7152006  45.2955500  53.1519155  59.0523185  41.6673148  53.7529145
  59.0384754  40.7714241  53.4161443  59.7695613  41.6743811  54.3867432
  60.9049316  42.1010488  55.7982273  60.6467093  43.0227558  55.7966603
  60.3734356  41.7040922  56.4882737  65.8495504  55.2061275  48.5772358
  66.0232382  54.6407697  47.8246211  66.3424396  56.0062170  48.3951848
  51.6672464  47.2175944  56.6435917  51.1225932  47.9935752  56.7756191
  52.5451814  47.5646748  56.4855039  58.4560081  40.5487528  49.0216716
  58.5775992  39.6204174  49.2207603  58.1662123  40.5626214  48.1095031
  61.3251271  38.2342438  52.1583435  61.3472968  38.2981771  51.2035415
  61.7419330  37.3946947  52.3523942  71.7034896  47.9697698  50.1962658
  72.1466042  47.2205023  49.7981781  70.8261406  47.9607834  49.8136390
  66.8370677  54.5228039  45.6769257  67.5321582  55.1434732  45.8956571
  67.1793827  53.6723390  45.9521634  52.4538486  46.3445840  59.5366074
  51.7120222  46.4928476  60.1230704  52.1331230  46.6054106  58.6732823
  68.7362100  51.9727745  47.2056587  69.2613424  52.3115018  46.4805907
  68.6484453  51.0374760  47.0219722  60.3982149  55.8861818  59.3346464
  60.7069275  55.6410965  60.2069164  61.1957631  56.0908457  58.8465334
  60.4202761  58.0399728  51.5651841  59.9807751  57.5476107  52.2584697
  61.1710878  57.4972696  51.3243916  52.8995100  54.2311269  51.5676469
  53.7253120  53.9315041  51.1875112  52.5489152  53.4618891  52.0166257
  57.8676633  53.5837737  53.6374142  57.2456642  52.9208442  53.3376370
  58.5381500  53.6098869  52.9547790  51.1003705  52.1497595  52.5265402
  50.2635613  51.7219770  52.3449403  51.0727350  52.3430039  53.4636193
  57.9401160  42.0619525  63.2306648  57.9889316  42.9381648  62.8484418
  58.4823675  41.5196918  62.6578291  68.4256006  52.6060648  62.5107785
  67.6351550  52.5884787  61.9712285  68.1889361  53.1448942  63.2656822
  68.5453881  49.4553115  59.8240514  68.5951886  49.2903122  60.7656037
  68.4367804  48.5880374  59.4338395  57.4290140  52.1341660  47.1132603
  57.5778260  52.8177125  46.4599275  58.2356583  52.1146751  47.6282058
  65.8357644  45.4384043  61.1399821  66.7367506  45.2990508  60.8483818
  65.9105618  45.6038498  62.0797998  60.1700449  42.8150898  59.9853007
  59.3003758  43.1084464  59.7135595  60.4059929  43.3991343  60.7060271
  70.0472078  51.8750056  60.0682535  69.7556886  52.2380037  60.9045996
  69.4344209  51.1617065  59.8895867  71.2467760  49.4402936  52.5885106
  72.0814652  49.8792740  52.7522666  71.3826889  48.9641589  51.7693351
  68.2959266  46.9982671  58.5362593  68.7713388  47.1910317  57.7281445
  67.3724832  47.0541857  58.2905977  55.1842773  48.1606838  48.1193672
  54.9388815  47.2569168  48.3173882  55.3538687  48.1623989  47.1773150
  62.8739483  39.0330514  57.5018427  63.3921427  39.7691541  57.1764916
  62.5194615  39.3394508  58.3365186  54.4538420  43.8935196  45.6179833
  53.7607665  43.9679551  44.9619869  54.2090172  43.1295539  46.1401350
  63.1252077  35.4530797  53.0219324  63.4053831  34.7853986  53.6479750
  63.9102684  35.6459893  52.5093988  60.9285545  54.6289791  44.5844350
  60.3559512  55.2479978  44.1314822  61.5018339  55.1789153  45.1184272
  66.9960935  43.8748431  56.7690899  67.9478358  43.9746529  56.7903123
  66.8264386  43.0826700  57.2788983  65.0175315  40.9604014  56.9550300
  64.4225247  41.2409027  56.2596789  64.7325011  41.4497915  57.7267041
  64.1482805  54.9126941  45.7152932  65.0813478  54.8472503  45.9185808
  64.0606018  55.7483208  45.2567465  66.7770822  54.2292811  42.6756880
  66.6984453  53.8952675  43.5692638  67.5980489  54.7214579  42.6748352
  69.4749013  47.0954551  55.8833199  69.4425333  46.1570551  56.0692882
  70.0849637  47.1738587  55.1499024  61.3132344  45.9650604  41.9260403
  62.2591449  45.8356812  41.9948821  60.9346589  45.2265266  42.4029831
  69.6243501  43.8865594  55.9291482  69.1082550  43.1024051  55.7421411
  70.5083450  43.5584311  56.0938001  67.2854228  37.6306610  51.8887294
  67.0879050  37.3221698  52.7730626  67.8953934  38.3568249  52.0185224
  75.2925563  48.1570558  55.0239235  76.0228951  47.8955846  55.5846939
  74.6832508  47.4199279  55.0641303  73.3740860  46.2978420  55.6213687
  72.6474024  46.1634385  55.0130178  72.9588147  46.6055249  56.4270405
  61.1971036  50.0168350  63.3861060  62.1174046  50.1946949  63.5801106
  61.1620619  49.0724395  63.2340759  59.4975261  43.8900580  41.8615288
  58.5906716  43.5933693  41.9378002  59.7751242  43.5930398  40.9949574
  54.1933109  47.9269384  56.0283841  54.4119119  48.8586492  56.0471875
  54.6058883  47.5677359  56.8138645  61.1137327  38.4337470  48.0159529
  60.3038055  38.0884555  48.3914775  61.8021744  38.1245014  48.6047141
  63.0427875  37.5115517  49.6383826  63.5958914  37.9310970  50.2973849
  63.2797961  36.5851265  49.6806782  59.0660974  43.5002590  65.4186590
  58.9657701  44.4496947  65.3498681  58.8482516  43.1720829  64.5462660
  58.2674046  40.7487515  42.0027267  59.1293210  41.0742414  42.2623084
  58.4524390  39.9619011  41.4900333  50.2841461  48.8309855  54.2807456
  49.5904933  48.4163808  53.7677410  51.0314452  48.8730391  53.6840875
  66.4206682  39.6216042  49.1462490  65.8405351  40.2800846  48.7640543
  66.1542615  38.7993386  48.7349908  64.8710248  39.0221099  51.3483810
  65.3710027  39.1337634  50.5398129  65.5145856  38.7182152  51.9884619
  58.9292244  46.9299729  64.2351651  58.4459326  47.7300089  64.4415540
  59.0153183  46.9407674  63.2819095  52.1978204  48.7628109  52.1573471
  52.1748892  48.8615796  51.2055354  52.5078840  49.6093260  52.4790637
  54.8565582  50.8204264  56.2720085  55.8108835  50.7888206  56.2050017
  54.6578105  50.3594888  57.0870311  55.4464964  49.3905380  58.8390883
  56.2657853  49.8849458  58.8625720  55.7201772  48.4737348  58.8108450
  65.2031560  41.7816132  48.2018838  64.3157415  42.0665783  47.9839033
  65.6185549  41.6209896  47.3546115  68.5546096  41.8062653  51.9173178
  69.3306486  42.2959106  52.1897794  67.8294230  42.2320707  52.3745047
  70.9918655  42.5190272  52.9747118  71.5863146  42.2786008  52.2640426
  71.0645239  41.7997403  53.6020655  53.2115811  56.3623883  53.2890283
  53.0770279  55.6024284  52.7228281  52.7947873  57.0864783  52.8219072
  64.3474774  51.5460807  42.2966858  65.0510624  51.7510809  42.9124514
  63.6237422  52.1137569  42.5615942  65.1772584  47.2970668  48.4169129
  65.1207785  47.7539219  47.5776761  65.7300926  46.5361353  48.2391971
  68.9877390  43.0860400  49.2419248  68.7314324  42.6857036  50.0727456
  68.3630258  43.8004194  49.1169387  73.2989728  45.8256473  51.7490539
  72.7389286  45.8949662  52.5222101  72.6933231  45.6497458  51.0290036
  56.3684936  57.2593200  53.5008726  56.2517321  58.2038633  53.3987416
  55.5477383  56.9566762  53.8894525  66.2561471  51.9843336  44.3465318
  67.0907075  51.5524534  44.1642793  66.0945814  51.8125350  45.2742213
  65.9107363  48.4875449  45.7121658  65.8556167  48.3219721  44.7710102
  65.2853418  49.1951482  45.8683847  50.6999878  43.7243514  59.5383080
  51.3458742  43.2142468  60.0270305  50.4917029  44.4612195  60.1126505
  63.2253270  50.7924361  65.0375220  64.0944430  50.9665013  64.6761855
  62.7460022  51.6118778  64.9150950  59.2203489  37.9883558  45.2906976
  59.2082158  38.9325398  45.4475247  60.1126911  37.8053704  44.9966437
  57.3939451  57.9121462  56.7164654  58.2966697  57.9445072  57.0331149
  57.1676821  56.9821913  56.7310990  59.1493053  56.6652449  53.3774733
  58.1988684  56.6654310  53.2639105  59.4525539  55.9185183  52.8610767
  63.0355608  34.5826335  49.5452913  62.2688004  34.0284822  49.6909595
  63.4466313  34.6548204  50.4067065  55.0397369  40.8711131  63.6358094
  55.9028831  40.5147936  63.8461419  54.4662780  40.5325026  64.3233498
  74.8845746  62.5012987  54.4420495  75.5224156  62.3819734  53.7383835
  74.7666589  63.4493831  54.5008447  71.6935452  62.4540415  54.3782020
  71.3553964  62.3381480  53.4902555  72.5625221  62.0531580  54.3583026
  67.5522268  64.3075892  50.3678911  66.9887133  64.2165829  49.5995199
  67.4374663  63.4875796  50.8481403  65.0986700  65.8027083  53.2063131
  65.8907992  65.4617908  52.7909431  65.3383350  65.9122058  54.1265285
  73.1321827  67.9746859  45.6793376  72.4809807  68.5600940  45.2927389
  73.9266190  68.5053054  45.7388413  67.0577454  65.0635996  46.0780510
  67.8308330  64.5164984  45.9393386  67.4102853  65.9280246  46.2894971
  69.8218703  63.7689227  55.8748769  70.4182276  63.5445250  55.1605732
  69.8793675  63.0273973  56.4774217  69.3943732  61.2228663  43.7098960
  69.6469252  60.7010184  42.9482423  68.4568291  61.0594808  43.8125644
  74.4387015  60.2264441  51.5173703  75.2250104  59.8083864  51.1664120
  74.7025719  61.1310533  51.6855352  74.6097092  65.6637291  46.2162360
  73.9742925  65.7371918  46.9283265  74.2794498  66.2530890  45.5381439
  69.1140021  63.1256769  45.9123335  68.9976279  62.4501672  46.5804419
  69.2242280  62.6389142  45.0955488  71.4571561  62.5866916  49.6170024
  71.0929769  62.0597537  50.3282946  72.3138677  62.1965385  49.4436510
  77.3620862  53.8761248  56.8801290  77.0304187  54.7456659  56.6562505
  76.7666475  53.5597532  57.5595321  71.0977048  57.6156815  44.6131373
  71.2651451  58.4837052  44.9801844  70.9074217  57.7784097  43.6892662
  73.8552382  66.0773794  56.2797203  73.5553105  66.9798833  56.1713010
  73.5103441  65.8105977  57.1318356  67.3064863  62.5287591  52.3133907
  66.3815360  62.3963805  52.5211599  67.5549276  63.3081810  52.8103850
  77.2549525  58.5956334  53.9594640  76.3466403  58.5271743  53.6653401
  77.2037121  59.0728279  54.7876466  71.0766269  60.0714473  45.5978039
  70.9565894  60.5171524  46.4363520  70.3818858  60.4199791  45.0391578
  64.6673674  62.1720865  53.1477697  64.7966055  62.4255344  54.0617108
  63.9871125  62.7648573  52.8282352  68.8373161  72.8418115  49.2468171
  68.7597191  73.7925940  49.3256651  68.2334805  72.4963987  49.9043097
  76.7751335  60.5435946  46.4258374  77.6869192  60.7763333  46.2506071
  76.2660983  61.1272990  45.8633452  69.5836763  62.8231433  61.4647505
  70.3251448  63.3616477  61.1882328  68.8773749  63.4497722  61.6219056
  71.4123173  59.9033181  57.4353223  72.2584368  60.3272594  57.5787872
  71.3521811  59.2466805  58.1291786  75.3820918  65.5261764  53.8171955
  74.7529780  65.6907479  53.1148023  74.9946580  65.9403374  54.5882919
  74.5622618  57.5637549  59.0934397  74.3183550  58.3179610  58.5568672
  74.8382549  57.9422897  59.9281644  76.5161081  64.1076161  57.7711662
  76.7277976  64.7507921  57.0946043  76.4690830  63.2738478  57.3033592
  74.1187310  56.7193982  54.6748234  73.2571789  57.0175236  54.9664972
  74.1449745  56.9364381  53.7429267  70.9348880  65.2636173  51.0822040
  71.3987225  65.5423876  50.2926663  70.6705678  64.3619617  50.8995131
  67.8272961  64.8107654  54.0201803  68.3974318  65.2394922  53.3819288
  68.4181073  64.5290239  54.7185989  69.8717766  61.3859325  47.8911605
  70.5741809  61.8380369  48.3585532  69.5398394  60.7443144  48.5191498
  68.3198127  59.9771082  62.2662815  67.6896788  60.6587362  62.4998211
  68.2134215  59.8654163  61.3215953  63.6143100  59.6442878  53.1928739
  62.8242154  59.9000406  52.7168849  64.1054347  60.4591215  53.2980779
  65.5657845  60.0087457  50.1512216  64.7689008  60.1206151  50.6695711
  65.3383437  60.3474109  49.2853106  61.8980803  59.8973368  55.6243730
  62.1488841  60.7820378  55.8901306  62.4340351  59.7177970  54.8518821
  71.1111530  68.2000268  47.9673710  70.9757205  69.0451803  48.3958558
  71.6521343  68.4019545  47.2039644  67.5978870  54.2791847  64.6288066
  67.2045816  53.7258046  65.3035710  68.4145010  54.5902426  65.0194583
  64.5640928  65.7175706  48.5401636  65.0765448  66.5118956  48.6907200
  65.2163641  65.0201996  48.4735237  66.3735812  68.8341462  50.6224389
  66.5502441  69.7559427  50.4345373  67.1692646  68.5199881  51.0518769
  70.5146831  55.6949727  62.2208322  71.2556544  56.2956880  62.1412785
  70.7464754  54.9527364  61.6626365  65.6588169  60.8806094  60.4986552
  65.5441684  59.9791351  60.7993651  64.8032687  61.1269791  60.1471368
  67.4967128  70.3519636  56.6234731  68.0474553  70.2236699  55.8511725
  66.6578604  70.6514525  56.2729624  74.4603994  51.7230829  56.4972604
  74.1168263  52.6132471  56.4211715  74.8282956  51.5332487  55.6342189
  62.5289844  64.0464360  49.3161206  63.3665066  64.4561368  49.0994914
  62.7068112  63.1063802  49.2861400  74.4254277  61.7139441  45.0045039
  73.9100900  62.4844045  45.2433426  74.1531585  61.0404577  45.6278100
  72.0101388  56.5589141  50.0630277  71.1542984  56.1695992  49.8835916
  72.4228339  56.6381102  49.2030063  73.5400534  54.0935485  54.4621837
  73.0365330  54.0565620  53.6489642  73.8331141  55.0028227  54.5218494
  69.7843420  54.1774214  53.4688019  70.6496417  53.9817023  53.1093908
  69.8520929  53.9484566  54.3957376  74.2140580  59.5866533  46.8304820
  73.9090715  59.9012682  47.6814963  75.1671022  59.6647953  46.8732153
  72.6587012  65.7456756  48.4797774  72.1308373  65.0109516  48.1671012
  72.1574514  66.5231432  48.2337743  77.6379858  63.9405776  53.5964821
  76.9803532  64.6305038  53.6844949  78.4420257  64.3302208  53.9398807
  67.3905739  56.4076422  50.8404386  67.9649491  56.1851604  50.1077579
  67.9776722  56.4765117  51.5932987  76.4485316  62.2950149  51.6468762
  76.9617198  62.9280141  52.1490472  77.0986540  61.6951345  51.2812122
  67.7175326  58.4380883  44.8600271  66.8812639  58.7755570  45.1809546
  67.5780096  58.3029863  43.9227408  69.6928407  53.2817671  49.5679455
  69.0392819  52.9666688  48.9436070  69.6508881  52.6593412  50.2939278
  70.8039612  63.5636966  41.4832747  69.8966674  63.3326220  41.6823896
  71.3010644  62.7674585  41.6706729  72.9266147  59.7699605  53.8927103
  72.0088709  59.9914552  53.7348791  73.3426291  59.8445915  53.0338810
  73.7101195  61.1691020  49.0229783  74.4573014  61.6812418  48.7136905
  73.9792785  60.8475073  49.8834177  71.9827845  63.6649561  46.0056737
  71.0739064  63.3808594  46.1029207  72.0122929  64.0848640  45.1460044
  77.2147113  67.2756151  49.7747905  76.7609440  66.4347060  49.8313095
  76.5841079  67.9117549  50.1122685  76.1580032  58.2048137  51.0048572
  75.4202789  57.6925523  51.3358815  76.4106806  57.7648518  50.1931849
  76.2591660  50.9824389  51.5990342  76.5650536  50.1221752  51.3116257
  76.9844264  51.5742009  51.3989336  62.5516016  61.3855075  49.9871940
  62.3540415  60.7924436  49.2623006  61.9962680  61.0807285  50.7047878
  70.5312739  61.2778182  52.1066533  70.5861349  60.3252018  52.0309009
  69.7203941  61.4337621  52.5907831  71.6803933  65.2058305  43.3444816
  71.2423363  64.4894164  42.8850453  72.4214374  65.4334420  42.7829907
  68.4705099  59.8955241  49.8656912  67.6572965  60.1949412  50.2722104
  68.9664093  59.5010930  50.5831394  70.6213677  69.8912998  51.7991176
  70.5789856  70.1173845  50.8699708  71.5376376  69.6576373  51.9476977
  74.0679311  60.3597066  58.6971805  74.4228699  60.5868539  59.5566271
  74.7151442  60.6915443  58.0749061  67.9619174  57.4673597  55.4818146
  68.6018553  57.3262356  54.7841110  67.1296705  57.1808110  55.1056748
  68.7379478  66.7676027  51.5953139  69.5320076  66.2726348  51.3935714
  68.0271170  66.2393891  51.2320845  65.0462241  60.9119109  47.6712892
  64.1159829  60.8503565  47.8882854  65.1419713  60.3895062  46.8749533
  64.9647790  57.4373922  50.2591133  65.2254608  58.3519255  50.1500294
  65.7864963  56.9698365  50.4087746  66.4372716  58.8511679  57.4289958
  67.1095769  58.6429041  56.7802607  65.6102502  58.6533765  56.9895190
  72.3398288  55.4773620  59.4455619  71.6926203  56.1763570  59.3520095
  73.1099303  55.9109764  59.8131867  72.5162422  63.3154385  57.5052438
  73.4454482  63.4665545  57.3321406  72.0953452  63.4038406  56.6501085
  71.3150754  67.3405049  55.2750976  71.1761840  66.9723834  56.1476914
  70.5265350  67.8552689  55.1034934  72.8655969  66.7186652  52.6639814
  72.5305802  66.6787422  53.5597464  72.3659915  66.0531368  52.1910224
  66.8400213  62.1254282  58.1892395  66.7020011  61.3934521  58.7903934
  67.7505136  62.0363182  57.9076583  75.8015161  64.0642686  42.9376873
  75.1844331  63.3389515  42.8409926  75.3331649  64.8252047  42.5943948
  69.4682514  61.8374241  57.6776075  70.1782132  61.1967434  57.6362693
  69.4251822  62.0887136  58.6002255  68.1811448  58.8239459  59.4971714
  67.6448805  58.3730198  60.1493310  67.5928156  58.9585368  58.7542178
  67.5913707  58.2828111  42.0598178  66.7143173  58.1616912  41.6960424
  68.0671460  57.4914189  41.8077066  59.1115847  63.0705270  52.1539685
  59.7986887  62.7567000  51.5660700  58.9563975  63.9746635  51.8806936
  63.9150569  57.9595467  56.5824709  63.8308758  57.3521137  55.8475119
  63.0933275  58.4504485  56.5834205  70.7777633  70.6354401  49.3060698
  69.9945154  71.1776081  49.3998923  71.4770378  71.1528381  49.7054939
  74.0874283  56.4449031  51.9494904  74.5842982  55.6918993  51.6295974
  73.3161264  56.4813347  51.3838113  75.1704063  65.2020718  49.5233327
  74.2360342  65.3222180  49.3538031  75.3480732  64.2993185  49.2593337
  70.6709251  58.5866414  51.6766588  70.3007039  58.0337454  52.3647494
  71.1668344  57.9824547  51.1241588  76.6252846  67.3881858  47.0569513
  76.9012690  67.2738453  47.9663387  75.7557345  66.9899343  47.0181686
  76.5293277  53.4118624  54.0974263  75.6156357  53.6422851  54.2656469
  76.9586379  53.4957068  54.9488295  76.2999736  61.6008516  56.5974157
  75.6471186  61.8484423  55.9426609  76.6780116  60.7872654  56.2636634
  73.5949075  70.5636394  47.9617375  74.1236842  70.0528849  47.3487537
  73.8577295  70.2478925  48.8262908  64.0966168  68.5800264  55.7052709
  64.6819605  67.8343952  55.8380613  63.8991007  68.8904220  56.5889373
  66.9504823  71.6151511  50.7215151  66.2815199  72.0997639  50.2379191
  66.8117693  71.8620731  51.6358530  58.6883823  61.1505864  54.4257152
  58.7267922  60.6169454  55.2194270  58.1824116  60.6241069  53.8068129
  66.0674585  55.9970404  57.9219694  66.1315912  56.8585235  57.5097092
  66.0041705  55.3844406  57.1892053  65.5426858  58.0693537  61.5692729
  66.1698896  57.6870614  62.1830253  64.6854777  57.8507739  61.9348421
  62.3192400  59.8769966  47.5011083  62.6145841  58.9680644  47.4478137
  61.4180436  59.8557705  47.1792086  65.8486647  57.9525963  53.4838632
  65.1273233  58.5661930  53.3446105  66.6379903  58.4883727  53.4055278
  68.6512961  55.2880389  59.7579284  69.1747363  55.5342686  60.5205593
  68.4325294  56.1200424  59.3382421  64.0480242  57.5584064  47.6250409
  63.7192948  56.6781443  47.4425514  64.4019613  57.5031732  48.5126798
  73.2959821  69.1938966  52.1345394  73.1484783  68.2655674  52.3152964
  74.1213314  69.2159057  51.6502469  67.1622065  57.8457033  47.9925886
  67.5018138  58.3742955  47.2704495  67.6094186  58.1837440  48.7684453
  69.8565506  56.2294084  57.4428954  69.5162326  55.4301897  57.8449634
  69.1504512  56.5295795  56.8705787  70.5081978  53.3143397  55.8956277
  71.3308047  52.8403875  55.7735168  70.7520041  54.0933880  56.3954964
  69.1490212  56.3431655  46.1919179  69.8698575  56.7212908  45.6882896
  68.5255516  57.0620532  46.2954157  73.2921335  57.0476804  47.1277511
  73.5084950  57.9301442  46.8266340  72.8115402  56.6563017  46.3983153
  68.0320557  60.0062517  53.7048256  67.8865137  60.3202820  54.5972537
  67.5545760  60.6247418  53.1519155  69.8916939  56.9965065  53.7529145
  69.8778508  56.1006159  53.4161443  70.6089368  57.0035729  54.3867432
  71.7443070  57.4302405  55.7982273  71.4860848  58.3519476  55.7966603
  71.2128111  57.0332840  56.4882737  62.5066219  62.5467862  56.6435917
  61.9619687  63.3227670  56.7756191  63.3845569  62.8938666  56.4855039
  69.2953835  55.8779445  49.0216716  69.4169747  54.9496092  49.2207603
  69.0055878  55.8918131  48.1095031  72.1645026  53.5634356  52.1583435
  72.1866723  53.6273689  51.2035415  72.5813085  52.7238865  52.3523942
  63.2932241  61.6737758  59.5366074  62.5513977  61.8220393  60.1230704
  62.9724985  61.9346023  58.6732823  63.7388854  69.5603187  51.5676469
  64.5646874  69.2606958  51.1875112  63.3882906  68.7910809  52.0166257
  68.7070387  68.9129655  53.6374142  68.0850397  68.2500360  53.3376370
  69.3775254  68.9390787  52.9547790  61.9397459  67.4789513  52.5265402
  61.1029368  67.0511687  52.3449403  61.9121105  67.6721956  53.4636193
  68.7794915  57.3911443  63.2306648  68.8283070  58.2673566  62.8484418
  69.3217429  56.8488836  62.6578291  68.2683894  67.4633578  47.1132603
  68.4172015  68.1469043  46.4599275  69.0750338  67.4438668  47.6282058
  71.0094203  58.1442815  59.9853007  70.1397513  58.4376381  59.7135595
  71.2453684  58.7283260  60.7060271  66.0236527  63.4898756  48.1193672
  65.7782569  62.5861086  48.3173882  66.1932442  63.4915906  47.1773150
  73.7133237  54.3622432  57.5018427  74.2315181  55.0983459  57.1764916
  73.3588370  54.6686425  58.3365186  65.2932175  59.2227113  45.6179833
  64.6001420  59.2971468  44.9619869  65.0483927  58.4587457  46.1401350
  73.9645831  50.7822715  53.0219324  74.2447585  50.1145904  53.6479750
  74.7496438  50.9751810  52.5093988  71.7679300  69.9581709  44.5844350
  71.1953267  70.5771896  44.1314822  72.3412094  70.5081070  45.1184272
  75.8569069  56.2895932  56.9550300  75.2619001  56.5700945  56.2596789
  75.5718766  56.7789833  57.7267041  72.1526098  61.2942521  41.9260403
  73.0985203  61.1648729  41.9948821  71.7740343  60.5557183  42.4029831
  70.3369016  59.2192498  41.8615288  69.4300471  58.9225610  41.9378002
  70.6144997  58.9222316  40.9949574  61.2546956  60.5398861  52.3114334
  60.9349740  59.6864169  52.0188708  60.7080384  60.7547439  53.0672302
  65.0326863  63.2561302  56.0283841  65.2512873  64.1878410  56.0471875
  65.4452637  62.8969277  56.8138645  71.9531081  53.7629387  48.0159529
  71.1431810  53.4176472  48.3914775  72.6415498  53.4536931  48.6047141
  73.8821630  52.8407434  49.6383826  74.4352668  53.2602888  50.2973849
  74.1191716  51.9143182  49.6806782  69.1067800  56.0779433  42.0027267
  69.9686964  56.4034331  42.2623084  69.2918144  55.2910929  41.4900333
  61.1235216  64.1601773  54.2807456  60.4298687  63.7455725  53.7677410
  61.8708207  64.2022309  53.6840875  77.2600437  54.9507959  49.1462490
  76.6799106  55.6092763  48.7640543  76.9936369  54.1285304  48.7349908
  75.7104003  54.3513017  51.3483810  76.2103781  54.4629552  50.5398129
  76.3539611  54.0474070  51.9884619  63.0371958  64.0920026  52.1573471
  63.0142647  64.1907714  51.2055354  63.3472595  64.9385177  52.4790637
  65.6959336  66.1496181  56.2720085  66.6502590  66.1180124  56.2050017
  65.4971860  65.6886805  57.0870311  66.2858718  64.7197297  58.8390883
  67.1051607  65.2141376  58.8625720  66.5595526  63.8029266  58.8108450
  76.0425315  57.1108050  48.2018838  75.1551170  57.3957700  47.9839033
  76.4579304  56.9501813  47.3546115  64.0509565  71.6915801  53.2890283
  63.9164033  70.9316202  52.7228281  63.6341627  72.4156701  52.8219072
  75.1868528  66.8752724  42.2966858  75.8904378  67.0802727  42.9124514
  74.4631177  67.4429486  42.5615942  76.0166338  62.6262586  48.4169129
  75.9601540  63.0831137  47.5776761  76.5694681  61.8653270  48.2391971
  67.2078691  72.5885118  53.5008726  67.0911075  73.5330550  53.3987416
  66.3871137  72.2858680  53.8894525  77.0955225  67.3135254  44.3465318
  77.9300829  66.8816452  44.1642793  76.9339568  67.1417267  45.2742213
  76.7501118  63.8167367  45.7121658  76.6949921  63.6511638  44.7710102
  76.1247173  64.5243400  45.8683847  61.5393633  59.0535431  59.5383080
  62.1852496  58.5434385  60.0270305  61.3310784  59.7904113  60.1126505
  70.0597243  53.3175476  45.2906976  70.0475913  54.2617316  45.4475247
  70.9520665  53.1345621  44.9966437  69.9886807  71.9944366  53.3774733
  69.0382438  71.9946228  53.2639105  70.2919293  71.2477101  52.8610767
  73.8749363  49.9118253  49.5452913  73.1081758  49.3576739  49.6909595
  74.2860068  49.9840121  50.4067065  65.8791124  56.2003048  63.6358094
  66.7422585  55.8439853  63.8461419  65.3056534  55.8616943  64.3233498
  32.5805438  -3.1786547  39.9308438  33.3726730  -3.5195723  39.5154737
  32.8202088  -3.0691572  40.8510591  40.6140565  -1.0066771  32.4038682
  39.9628544  -0.4212691  32.0172696  41.4084927  -0.4760576  32.4633720
  36.3781234  -2.5901252  46.0092716  36.0871100  -1.6855621  45.8939382
  37.0138219  -2.5484724  46.7236786  36.3191899   3.8604484  35.9713477
  36.2415929   4.8112309  36.0501958  35.7153543   3.5150357  36.6288404
  38.5930268  -0.7813363  34.6919017  38.4575943   0.0638173  35.1203865
  39.1340081  -0.5794085  33.9284951  32.0459665  -3.2637925  35.2646942
  32.5584186  -2.4694675  35.4152507  32.6982378  -3.9611634  35.1980544
  33.8554550  -0.1472169  37.3469695  34.0321179   0.7745796  37.1590679
  34.6511384  -0.4613749  37.7764075  40.2198744  -0.1589796  48.8219359
  39.7762599  -0.9453418  48.5040264  40.8815958   0.0289354  48.1563250
  34.9785866   1.3706005  43.3480038  35.5293291   1.2423069  42.5757032
  34.1397342   1.6700894  42.9974930  42.3179983   0.1213004  46.8500760
  42.2998458   0.9421885  46.3581030  43.2399903  -0.0032921  47.0750902
  41.1926428   3.2920843  31.1274740  40.5188127   3.5952540  31.7359698
  41.5792250   4.0949923  30.7780197  43.1398790   0.1319017  37.4343030
  43.4321764   0.6924074  36.7155395  43.6497410   0.4247578  38.1896189
  38.1032415   0.9099368  38.5236483  38.0608594   1.1360214  37.5945015
  39.0195114   0.6762743  38.6722284  41.0393060   0.1680492  42.6710813
  41.0930082   0.7371429  43.4388529  40.1707841   0.3382378  42.3064850
  38.7969492  -1.6408581  41.9996283  38.6580577  -2.0089797  42.8722221
  38.0084088  -1.1260942  41.8280240  39.3917644   3.4600515  33.3421819
  39.5669399   2.9888559  34.1567442  38.7050432   4.0866282  33.5703080
  33.9578729   6.6089878  40.1161679  34.1975327   7.2408402  40.7940698
  33.1147925   6.2577918  40.4027039  38.4706591   2.4169001  42.5203183
  38.3976762   3.2223972  43.0322488  38.0283984   2.6160966  41.6951205
  38.2596370   1.6540771  36.0306005  37.4763892   2.1962451  36.1244229
  38.9589116   2.1714750  36.4300246  40.9305274   2.3155835  44.6761342
  41.6433246   2.9503299  44.6037243  40.4395303   2.4119701  43.8601344
  35.9817188   0.0650278  45.4966913  36.6826647   0.6986761  45.6496307
  35.5112303   0.4065010  44.7362552  40.7425648   2.6554579  37.4247633
  40.9248042   1.8376235  37.8875386  41.5658634   2.8722271  36.9872523
  41.0767813   1.5822764  34.6862682  41.6055580   1.0715218  34.0732844
  41.3396033   1.2665294  35.5508215  31.5784906  -0.4013367  42.4298016
  32.1638343  -1.1469679  42.5625920  31.3809744  -0.0909410  43.3134679
  34.4323561   2.6337881  37.4460458  33.7633936   3.1184008  36.9624498
  34.2936431   2.8807101  38.3603836  38.5728830   4.6681624  44.0443116
  39.1247138   4.8313246  44.8092201  38.9135023   5.2586062  43.3723141
  41.7097217   2.6163600  41.0306798  41.5848356   1.8153339  40.5217744
  42.3676308   3.1109793  40.5420768  40.7778559   0.2125336  38.8590701
  40.6303521  -0.7157957  39.0398271  41.6032052   0.2345427  38.3747776
  44.3812680   1.0353895  39.9455574  45.3059228   0.8296756  39.8080025
  44.2127984   0.7870296  40.8544915  44.1707997   1.5539562  35.3017665
  44.3444874   0.9885985  34.5491517  44.6636888   2.3540457  35.1197155
  38.7194641   2.2340106  46.0591771  39.0281767   1.9889252  46.9314470
  39.5170123   2.4386744  45.5710641  38.7415253   4.3878015  38.2897147
  38.3020243   3.8954394  38.9830004  39.4923370   3.8450983  38.0489222
  31.2207592   0.5789556  38.2921775  32.0465612   0.2793328  37.9120419
  30.8701644  -0.1902821  38.7411564  36.1889125  -0.0683976  40.3619449
  35.5669134  -0.7313271  40.0621677  36.8593992  -0.0422844  39.6793097
  29.4216197  -1.5024117  39.2510709  28.5848105  -1.9301943  39.0694710
  29.3939843  -1.3091674  40.1881500  35.7502632  -1.5180052  33.8377909
  35.8990752  -0.8344588  33.1844582  36.5569076  -1.5374962  34.3527365
  39.2498038   0.9768078  31.3089657  38.6772005   1.5958265  30.8560129
  39.8230831   1.5267440  31.8429579  42.4695297   1.2605228  32.4398239
  43.4025971   1.1950790  32.6431115  42.3818510   2.0961495  31.9812772
  45.0983314   0.5771099  29.4002187  45.0196946   0.2430962  30.2937945
  45.9192981   1.0692867  29.3993659  28.6053954  -4.8211858  41.0052763
  27.9117425  -5.2357905  40.4922717  29.3526945  -4.7791321  40.4086181
  30.5190696  -4.8893604  38.8818777  30.4961384  -4.7905917  37.9300661
  30.8291333  -4.0428453  39.2035944  33.1778074  -2.8317449  42.9965392
  34.1321328  -2.8633507  42.9295323  32.9790598  -3.2926825  43.8115618
  31.5328303   2.7102171  40.0135590  31.3982771   1.9502571  39.4473588
  31.1160365   3.4343070  39.5464379  34.6897429   3.6071488  40.2254032
  34.5729813   4.5516920  40.1232723  33.8689875   3.3045049  40.6139832
  35.7151943   4.2599749  43.4409961  36.6179190   4.2923360  43.7576456
  35.4889313   3.3300200  43.4556297  37.4705545   3.0130736  40.1020039
  36.5201176   3.0132598  39.9884412  37.7738031   2.2663471  39.5856074
  53.2058238   8.8491274  41.1665802  53.8436648   8.7298022  40.4629142
  53.0879081   9.7972118  41.2253754  50.0147945   8.8018702  41.1027326
  49.6766456   8.6859767  40.2147861  50.8837713   8.4009868  41.0828333
  45.8734760  10.6554179  37.0924217  45.3099625  10.5644116  36.3240505
  45.7587155   9.8354083  37.5726710  50.4967728   9.9553554  47.0613532
  50.4856368   9.5606352  46.1894036  50.6588367   9.2219627  47.6547303
  43.4199192  12.1505370  39.9308438  44.2120484  11.8096195  39.5154737
  43.6595842  12.2600346  40.8510591  51.4534319  14.3225147  32.4038682
  50.8022299  14.9079227  32.0172696  52.2478682  14.8531341  32.4633720
  45.3789946  11.4114284  32.8025817  46.1520822  10.8643271  32.6638692
  45.7315345  12.2758533  33.0140278  47.2174989  12.7390666  46.0092716
  46.9264855  13.6436297  45.8939382  47.8531973  12.7807194  46.7236786
  48.1431196  10.1167515  42.5994076  48.7394768   9.8923537  41.8851039
  48.2006167   9.3752260  43.2019523  47.7156224   7.5706950  30.4344267
  47.9681745   7.0488471  29.6727730  46.7780783   7.4073095  30.5370950
  52.7599507   6.5742728  38.2419010  53.5462596   6.1562151  37.8909427
  53.0238211   7.4788820  38.4100658  52.9309584  12.0115579  32.9407667
  52.2955417  12.0850205  33.6528571  52.6006991  12.6009177  32.2626746
  58.1607934   6.5117961  39.1451988  58.8933106   5.9417178  39.3789818
  57.4047290   6.1239562  39.5858494  47.4352513   9.4735056  32.6368642
  47.3188771   8.7979959  33.3049726  47.5454773   8.9867430  31.8200795
  49.7784054   8.9345203  36.3415331  49.4142261   8.4075824  37.0528252
  50.6351170   8.5443672  36.1681816  49.4189541   3.9635103  31.3376679
  49.5863943   4.8315339  31.7047150  49.2286710   4.1262384  30.4137969
  52.1764874  12.4252082  43.0042510  51.8765597  13.3277120  42.8958317
  51.8315933  12.1584265  43.8563663  45.6277355   8.8765878  39.0379214
  44.7027852   8.7442092  39.2456906  45.8761769   9.6560098  39.5349157
  55.5762018   4.9434622  40.6839947  54.6678895   4.8750030  40.3898708
  55.5249613   5.4206567  41.5121772  49.3978762   6.4192760  32.3223346
  49.2778387   6.8649811  33.1608826  48.7031350   6.7678078  31.7636884
  42.9886166   8.5199152  39.8723003  43.1178548   8.7733631  40.7862415
  42.3083618   9.1126860  39.5527658  47.1585654  19.1896402  35.9713477
  47.0809683  20.1404227  36.0501958  46.5547297  18.8442274  36.6288404
  49.6502883   6.3624267  48.6274844  48.8736218   6.9218187  48.6177709
  50.2893446   6.8481050  49.1489714  55.0963828   6.8914233  33.1503680
  56.0081684   7.1241620  32.9751378  54.5873475   7.4751277  32.5878759
  47.9049256   9.1709721  48.1892811  48.6463940   9.7094765  47.9127635
  47.1986241   9.7976009  48.3464363  53.3804595  11.3138861  46.7864973
  53.7887951  10.8721272  46.0419605  52.6581857  10.7391489  47.0399166
  49.7335665   6.2511468  44.1598530  50.5796861   6.6750881  44.3033179
  49.6734303   5.5945092  44.8537093  53.7033410  11.8740052  40.5417262
  53.0742272  12.0385766  39.8393329  53.3159072  12.2881661  41.3128226
  57.5822642  12.8094490  37.8961625  56.8973680  13.1893391  37.3458659
  57.6666491  13.4189816  38.6293573  52.8835111   3.9115836  45.8179703
  52.6396043   4.6657897  45.2813979  53.1595041   4.2901184  46.6526950
  54.8373574  10.4554449  44.4956969  55.0490469  11.0986209  43.8191350
  54.7903322   9.6216765  44.0278899  52.4399802   3.0672269  41.3993541
  51.5784282   3.3653523  41.6910279  52.4662237   3.2842668  40.4674574
  49.2561372  11.6114460  37.8067347  49.7199717  11.8902163  37.0171969
  48.9918170  10.7097904  37.6240437  46.1485453  11.1585941  40.7447110
  46.7186810  11.5873210  40.1064594  46.7393565  10.8768526  41.4431296
  48.1930258   7.7337612  34.6156912  48.8954301   8.1858656  35.0830838
  47.8610886   7.0921431  35.2436805  46.6410619   6.3249369  48.9908121
  46.0109280   7.0065650  49.2243518  46.5346707   6.2132450  48.0461260
  41.9355592   5.9921165  39.9174045  41.1454646   6.2478693  39.4414156
  42.4266839   6.8069503  40.0226086  55.9519401  13.3326404  42.6679326
  56.7736845  12.9306591  42.3862008  55.9481804  13.2294638  43.6195442
  43.8870337   6.3565744  36.8757522  43.0901501   6.4684438  37.3941018
  43.6595930   6.6952396  36.0098413  49.7176005  12.8810447  44.8240037
  49.7820437  13.3430855  45.6598209  49.0086929  12.2507812  44.9522347
  40.2193295   6.2451655  42.3489036  40.4701333   7.1298665  42.6146612
  40.7552843   6.0656257  41.5764128  64.0425395   9.6765153  39.0164298
  63.2889103   9.1072551  38.8608302  64.1772936   9.6427817  39.9634932
  49.4324023  14.5478555  34.6919017  49.2969697  15.3930091  35.1203865
  49.9733835  14.7497832  33.9284951  42.8853420  12.0653993  35.2646942
  43.3977941  12.8597243  35.4152507  43.5376133  11.3680283  35.1980544
  44.6948305  15.1819749  37.3469695  44.8714933  16.1037714  37.1590679
  45.4905138  14.8678168  37.7764075  43.9800661   7.2284381  47.2231859
  43.8654176   6.3269638  47.5238957  43.1245179   7.4748078  46.8716675
  51.0592499  15.1702121  48.8219359  50.6156353  14.3838500  48.5040264
  51.7209713  15.3581272  48.1563250  45.8179620  16.6997923  43.3480038
  46.3687045  16.5714986  42.5757032  44.9791096  16.9992812  42.9974930
  53.1573737  15.4504921  46.8500760  53.1392212  16.2713802  46.3581030
  54.0793657  15.3258996  47.0750902  49.6146791  12.9649051  47.6924269
  50.1475128  12.2037339  47.4623577  49.0860872  12.6722703  48.4348423
  40.8502337  10.3942647  36.0406513  41.6877559  10.8039656  35.8240220
  41.0280604   9.4542089  36.0106707  52.7466769   8.0617728  31.7290346
  52.2313392   8.8322332  31.9678733  52.4744077   7.3882864  32.3523407
  50.3313880   2.9067429  36.7875584  49.4755476   2.5174279  36.6081223
  50.7440832   2.9859389  35.9275370  57.7201043  10.8150082  33.6643519
  56.9430486  10.4761242  33.2198681  58.3992524  10.8202706  32.9898484
  52.5353072   5.9344820  33.5550127  52.2303208   6.2490969  34.4060270
  53.4883514   6.0126240  33.5977460  50.9799504  12.0935043  35.2043081
  50.4520865  11.3587803  34.8916318  50.4787007  12.8709720  34.9583049
  55.9592350  10.2884064  40.3210127  55.3016024  10.9783325  40.4090256
  56.7632749  10.6780496  40.6644113  45.7118232   2.7554710  37.5649692
  46.2861983   2.5329891  36.8322885  46.2989214   2.8243404  38.3178294
  54.7697809   8.6428436  38.3714069  55.2829690   9.2758428  38.8735779
  55.4199033   8.0429632  38.0057429  46.0387819   4.7859171  31.5845578
  45.2025131   5.1233857  31.9054852  45.8992588   4.6508150  30.6472715
  49.1252104   9.9115253  28.2078054  48.2179166   9.6804507  28.4069203
  49.6223136   9.1152873  28.3952035  52.0320183  18.6212761  31.1274740
  51.3581882  18.9244457  31.7359698  52.4186005  19.4241841  30.7780197
  51.2478640   6.1177892  40.6172409  50.3301201   6.3392839  40.4594097
  51.6638783   6.1924202  39.7584117  52.0313687   7.5169308  35.7475090
  52.7785506   8.0290705  35.4382212  52.3005277   7.1953360  36.6079483
  50.3040338  10.0127848  32.7302044  49.3951557   9.7286881  32.8274514
  50.3335421  10.4326927  31.8705351  55.5359605  13.6234438  36.4993212
  55.0821932  12.7825348  36.5558402  54.9053572  14.2595836  36.8367992
  54.4792524   4.5526424  37.7293879  53.7415281   4.0403810  38.0604122
  54.7319298   4.1126805  36.9177156  53.9792544  15.4610935  37.4343030
  54.2715519  16.0215992  36.7155395  54.4891165  15.7539496  38.1896189
  40.8728508   7.7333362  36.7117246  40.6752908   7.1402723  35.9868313
  40.3175172   7.4285573  37.4293185  48.8525232   7.6256469  38.8311839
  48.9073841   6.6730305  38.7554316  48.0416434   7.7815908  39.3153138
  50.0016425  11.5536592  30.0690123  49.5635855  10.8372451  29.6095760
  50.7426866  11.7812707  29.5075214  46.7917591   6.2433529  36.5902218
  45.9785457   6.5427699  36.9967410  47.2876586   5.8489217  37.3076700
  48.9426169  16.2391286  38.5236483  48.9002348  16.4652132  37.5945015
  49.8588868  16.0054660  38.6722284  52.3891803   6.7075353  45.4217112
  52.7441191   6.9346826  46.2811578  53.0363934   7.0393730  44.7994367
  58.1189540   9.8293789  36.1266441  57.9807439  10.0195385  35.1987630
  57.7625759  10.5913172  36.5834492  46.2831666   3.8151884  42.2063453
  46.9231046   3.6740643  41.5086416  45.4509197   3.5286398  41.8302055
  58.1458920  11.8970316  41.1377713  58.5795426  11.8045605  41.9860767
  58.8590500  11.8727817  40.4997729  47.0591970  13.1154315  38.3198446
  47.8532569  12.6204635  38.1181021  46.3483663  12.5872178  37.9566151
  51.8786815  15.4972410  42.6710813  51.9323837  16.0663346  43.4388529
  51.0101596  15.6674295  42.3064850  43.3674734   7.2597396  34.3958198
  42.4372322   7.1981852  34.6128160  43.4632206   6.7373349  33.5994840
  43.2860283   3.7852209  36.9836440  43.5467100   4.6997542  36.8745600
  44.1077455   3.3176652  37.1333053  44.7585208   5.1989966  44.1535264
  45.4308261   4.9907329  43.5047913  43.9314995   5.0012052  43.7140497
  59.0074469  11.9394017  43.6710598  59.2010359  12.8439827  43.9169873
  58.9075087  11.4801436  44.5049183  54.0689578  12.0900759  49.2451479
  53.9175084  11.8611311  48.3281562  54.0594257  13.0471361  49.2582824
  50.8374914   9.6632672  44.2297745  51.7666974   9.8143832  44.0566712
  50.4165944   9.7516693  43.3746392  49.6363246  13.6883337  41.9996283
  49.4974332  13.3202121  42.8722221  48.8477842  14.2030976  41.8280240
  50.2311398  18.7892433  33.3421819  50.4063154  18.3180476  34.1567442
  49.5444186  19.4158199  33.5703080  51.1868461  13.0664939  39.3885120
  50.8518294  13.0265709  40.2842770  50.6872407  12.4009655  38.9155531
  45.1612705   8.4732569  44.9137702  45.0232503   7.7412808  45.5149241
  46.0717629   8.3841469  44.6321889  54.1227653  10.4120974  29.6622180
  53.5056824   9.6867802  29.5655233  53.6544141  11.1730334  29.3189254
  47.7895006   8.1852529  44.4021381  48.4994624   7.5445721  44.3608000
  47.7464314   8.4365424  45.3247562  55.7781785  15.1219882  47.3227960
  55.7194331  14.4379102  46.6558544  56.1801303  15.8638872  46.8708586
  46.5023940   5.1717747  46.2217021  45.9661297   4.7208485  46.8738617
  45.9140648   5.3063655  45.4787485  44.7972483  21.9381796  40.1161679
  45.0369082  22.5700320  40.7940698  43.9541680  21.5869836  40.4027039
  45.9126199   4.6306398  28.7843484  45.0355665   4.5095199  28.4205731
  46.3883952   3.8392476  28.5322373  55.7799192  13.0859466  45.5541940
  54.8925971  12.7485388  45.6768339  56.3497743  12.3542497  45.7910706
  37.4328339   9.4183558  38.8784992  38.1199379   9.1045288  38.2906007
  37.2776468  10.3224922  38.6052243  42.2363061   4.3073754  43.3070015
  42.1521250   3.6999424  42.5720425  41.4145768   4.7982773  43.3079512
  49.3100345  17.7460918  42.5203183  49.2370517  18.5515890  43.0322488
  48.8677738  17.9452884  41.6951205  49.0990125  16.9832688  36.0306005
  48.3157647  17.5254369  36.1244229  49.7982870  17.5006668  36.4300246
  60.2616532   8.4967683  40.3158502  60.2506409   9.3792399  39.9452435
  59.3933912   8.1439234  40.1213039  51.7699029  17.6447752  44.6761342
  52.4827001  18.2795217  44.6037243  51.2789057  17.7411618  43.8601344
  53.4916556  11.5499005  36.2478634  52.5572834  11.6700467  36.0783338
  53.6693224  10.6471472  35.9838644  48.9921744   4.9344701  38.4011895
  48.6219531   4.3815741  39.0892800  49.4880836   4.3302834  37.8486895
  56.8789107   7.3916324  36.7828668  57.3449559   8.2244316  36.7088970
  57.3296608   6.9261306  37.4873926  46.8210942  15.3942196  45.4966913
  47.5220402  16.0278679  45.6496307  46.3506057  15.7356927  44.7362552
  54.9465338  13.7360146  33.7814820  55.2225182  13.6216740  34.6908694
  54.0769837  13.3377630  33.7426993  54.6212228   7.9486803  43.3219463
  53.9683679   8.1962711  42.6671916  54.9992608   7.1350941  42.9881940
  51.5819402  17.9846496  37.4247633  51.7641797  17.1668152  37.8875386
  52.4052388  18.2014189  36.9872523  51.9161568  16.9114682  34.6862682
  52.4449334  16.4007136  34.0732844  52.1789787  16.5957212  35.5508215
  50.6699801   8.6906614  49.8085500  49.9940438   8.5900744  50.4787875
  51.4927435   8.5345828  50.2721497  42.4178660  14.9278551  42.4298016
  43.0032097  14.1822239  42.5625920  42.2203499  15.2382508  43.3134679
  45.2717316  17.9629798  37.4460458  44.6027691  18.4475926  36.9624498
  45.1330185  18.2099019  38.3603836  37.0096315   7.4984151  41.1502459
  37.0480415   6.9647742  41.9439577  36.5036608   6.9719357  40.5313436
  49.4122584  19.9973542  44.0443116  49.9640892  20.1605163  44.8092201
  49.7528778  20.5877980  43.3723141  44.3887077   2.3448692  44.6465001
  44.4528404   3.2063522  44.2342399  44.3254198   1.7322693  43.9137359
  43.8639350   4.4171824  48.2938035  44.4911389   4.0348901  48.9075560
  43.0067269   4.1986026  48.6593728  54.2633458  14.8234799  49.8991771
  54.8073362  15.4364758  49.4046725  53.6820303  15.3814378  50.4158784
  40.6404893   6.2248253  34.2256390  40.9358334   5.3158932  34.1723444
  39.7392928   6.2035993  33.9037392  52.5490971  17.9455517  41.0306798
  52.4242111  17.1445257  40.5217744  53.2070063  18.4401711  40.5420768
  44.1699140   4.3004250  40.2083939  43.4485725   4.9140217  40.0691412
  44.9592395   4.8362015  40.1300585  54.6125880  15.7464537  42.6586349
  53.6656215  15.6269889  42.5864675  54.9608653  14.8587035  42.7412610
  46.9725453   1.6358676  46.4824590  47.4959855   1.8820973  47.2450900
  46.7537786   2.4678711  46.0627728  42.3692734   3.9062351  34.3495715
  42.0405440   3.0259730  34.1670821  42.7232105   3.8510020  35.2372104
  51.6172313  15.5417254  38.8590701  51.4697276  14.6133961  39.0398271
  52.4425807  15.5637344  38.3747776  45.4834557   4.1935321  34.7171193
  45.8230630   4.7221242  33.9949801  45.9306678   4.5315727  35.4929759
  55.2206435  16.3645812  39.9455574  56.1452982  16.1588674  39.8080025
  55.0521738  16.1162213  40.8544915  48.1777998   2.5772371  44.1674261
  47.8374819   1.7780184  44.5694941  47.4717005   2.8774082  43.5951094
  47.4702705   2.6909942  32.9164486  48.1911067   3.0691195  32.4128203
  46.8468009   3.4098819  33.0199464  51.6133827   3.3955091  33.8522818
  51.8297442   4.2779729  33.5511646  51.1327895   3.0041305  33.1228460
  46.3533049   6.3540804  40.4293563  46.2077630   6.6681108  41.3217844
  45.8758252   6.9725705  39.8764461  48.2129432   3.3443352  40.4774452
  48.1991000   2.4484446  40.1406750  48.9301860   3.3514016  41.1112738
  50.0655562   3.7780693  42.5227580  49.8073340   4.6997763  42.5211910
  49.5340603   3.3811127  43.2128044  55.0101751  16.8831480  35.3017665
  55.1838629  16.3177902  34.5491517  55.5030642  17.6832375  35.1197155
  40.8278711   8.8946149  43.3681224  40.2832179   9.6705957  43.5001498
  41.7058061   9.2416953  43.2100345  47.6166328   2.2257733  35.7462022
  47.7382239   1.2974379  35.9452910  47.3268370   2.2396419  34.8340338
  60.8641142   9.6467903  36.9207965  61.3072288   8.8975228  36.5227088
  59.9867653   9.6378039  36.5381697  55.9976924  16.1998244  32.4014563
  56.6927828  16.8204937  32.6201878  56.3400074  15.3493595  32.6766941
  41.6144733   8.0216045  46.2611381  40.8726469   8.1698680  46.8476011
  41.2937477   8.2824311  45.3978130  57.8968347  13.6497950  33.9301894
  58.4219671  13.9885222  33.2051214  57.8090699  12.7144965  33.7465029
  49.5588395  17.5632023  46.0591771  49.8675522  17.3181170  46.9314470
  50.3563878  17.7678662  45.5710641  49.5809008  19.7169933  38.2897147
  49.1413998  19.2246312  38.9830004  50.3317124  19.1742901  38.0489222
  42.0601347  15.9081474  38.2921775  42.8859366  15.6085246  37.9120419
  41.7095399  15.1389096  38.7411564  47.0282880  15.2607942  40.3619449
  46.4062889  14.5978647  40.0621677  47.6987747  15.2869074  39.6793097
  40.2609952  13.8267800  39.2510709  39.4241860  13.3989975  39.0694710
  40.2333597  14.0200244  40.1881500  47.1007407   3.7389730  49.9551955
  47.1495563   4.6151853  49.5729724  47.6429921   3.1967123  49.3823598
  57.5862253  14.2830853  49.2353092  56.7957797  14.2654992  48.6957591
  57.3495607  14.8219147  49.9902129  57.7060128  11.1323320  46.5485820
  57.7558133  10.9673327  47.4901343  57.5974051  10.2650579  46.1583701
  46.5896387  13.8111865  33.8377909  46.7384507  14.4947330  33.1844582
  47.3962830  13.7916955  34.3527365  54.9963890   7.1154248  47.8645127
  55.8973753   6.9760713  47.5729125  55.0711865   7.2808703  48.8043305
  49.3306696   4.4921102  46.7098314  48.4610005   4.7854669  46.4380902
  49.5666176   5.0761547  47.4305577  59.2078325  13.5520261  46.7927842
  58.9163133  13.9150242  47.6291303  58.5950456  12.8387270  46.6141174
  60.4074007  11.1173141  39.3130412  61.2420898  11.5562945  39.4767973
  60.5433136  10.6411794  38.4938658  57.4565513   8.6752876  45.2607900
  57.9319635   8.8680522  44.4526751  56.5331078   8.7312062  45.0151284
  44.3449020   9.8377043  34.8438978  44.0995062   8.9339373  35.0419188
  44.5144934   9.8394193  33.9018456  43.6144667   5.5705401  32.3425140
  42.9213912   5.6449756  31.6865176  43.3696419   4.8065744  32.8646657
  50.0891792  16.3059996  31.3089657  49.5165759  16.9250183  30.8560129
  50.6624586  16.8559358  31.8429579  56.1567182   5.5518636  43.4936206
  57.1084605   5.6516734  43.5148430  55.9870632   4.7596904  44.0034290
  53.3089052  16.5897146  32.4398239  54.2419725  16.5242708  32.6431115
  53.2212265  17.4253413  31.9812772  55.9377069  15.9063016  29.4002187
  55.8590700  15.5722880  30.2937945  56.7586735  16.3984784  29.3993659
  58.6355260   8.7724756  42.6078505  58.6031580   7.8340756  42.7938189
  59.2455883   8.8508792  41.8744330  50.4738591   7.6420809  28.6505709
  51.4197695   7.5127017  28.7194127  50.0952836   6.9035471  29.1275137
  64.4531810   9.8340762  41.7484542  65.1835198   9.5726051  42.3092245
  63.8438755   9.0969484  41.7886610  62.5347107   7.9748625  42.3458993
  61.8080270   7.8404590  41.7375485  62.1194394   8.2825454  43.1515711
  50.3577283  11.6938555  50.1106366  51.2780293  11.8717154  50.3046413
  50.3226866  10.7494600  49.9586066  48.6581508   5.5670785  28.5860595
  47.7512963   5.2703898  28.6623308  48.9357489   5.2700603  27.7194881
  39.5759448   6.8877148  39.0359641  39.2562233   6.0342457  38.7434015
  39.0292876   7.1025727  39.7917608  43.3539356   9.6039589  42.7529147
  43.5725365  10.5356697  42.7717181  43.7665130   9.2447564  43.5383951
  48.2267221   5.1772795  52.1431896  48.1263948   6.1267152  52.0743987
  48.0088763   4.8491034  51.2707966  47.4280292   2.4257720  28.7272574
  48.2899456   2.7512619  28.9868391  47.6130637   1.6389216  28.2145640
  39.4447708  10.5080060  41.0052763  38.7511180  10.0934013  40.4922717
  40.1920699  10.5500596  40.4086181  48.0898491   8.6069934  50.9596958
  47.6065573   9.4070294  51.1660847  48.1759430   8.6177879  50.0064402
  41.3584451  10.4398314  38.8818777  41.3355139  10.5386001  37.9300661
  41.6685087  11.2863464  39.2035944  44.0171829  12.4974469  42.9965392
  44.9715082  12.4658411  42.9295323  43.8184352  12.0365092  43.8115618
  44.6071211  11.0675585  45.5636189  45.4264100  11.5619663  45.5871027
  44.8808018  10.1507553  45.5353757  42.3722057  18.0394088  40.0135590
  42.2376525  17.2794489  39.4473588  41.9554120  18.7634988  39.5464379
  53.5081020  13.2231012  29.0212165  54.2116870  13.4281014  29.6369821
  52.7843669  13.7907774  29.2861249  54.3378831   8.9740873  35.1414435
  54.2814032   9.4309424  34.3022068  54.8907173   8.2131558  34.9637278
  62.4595974   7.5026678  38.4735846  61.8995532   7.5719867  39.2467408
  61.8539478   7.3267663  37.7535342  45.5291183  18.9363405  40.2254032
  45.4123567  19.8808838  40.1232723  44.7083630  18.6336967  40.6139832
  55.4167718  13.6613541  31.0710625  56.2513322  13.2294739  30.8888100
  55.2552061  13.4895555  31.9987520  55.0713610  10.1645654  32.4366964
  55.0162414   9.9989926  31.4955408  54.4459665  10.8721687  32.5929154
  39.8606125   5.4013719  46.2628387  40.5064989   4.8912673  46.7515612
  39.6523276   6.1382400  46.8371812  52.3859517  12.4694566  51.7620527
  53.2550677  12.6435218  51.4007162  51.9066269  13.2888983  51.6396256
  46.5545697  19.5891667  43.4409961  47.4572944  19.6215277  43.7576456
  46.3283067  18.6592118  43.4556297  48.3099299  18.3422654  40.1020039
  47.3594930  18.3424515  39.9884412  48.6131786  17.5955388  39.5856074
  44.2003616   2.5481336  50.3603401  45.0635077   2.1918141  50.5706725
  43.6269027   2.2095231  51.0478805  64.0451993  24.1783192  41.1665802
  64.6830403  24.0589939  40.4629142  63.9272836  25.1264036  41.2253754
  60.8541699  24.1310620  41.1027326  60.5160211  24.0151685  40.2147861
  61.7231467  23.7301785  41.0828333  56.7128515  25.9846097  37.0924217
  56.1493380  25.8936033  36.3240505  56.5980910  25.1646001  37.5726710
  61.3361482  25.2845472  47.0613532  61.3250123  24.8898270  46.1894036
  61.4982122  24.5511544  47.6547303  54.2592947  27.4797288  39.9308438
  55.0514239  27.1388113  39.5154737  54.4989597  27.5892263  40.8510591
  62.2928074  29.6517064  32.4038682  61.6416053  30.2371145  32.0172696
  63.0872436  30.1823259  32.4633720  56.2183701  26.7406201  32.8025817
  56.9914577  26.1935188  32.6638692  56.5709100  27.6050451  33.0140278
  58.0568743  28.0682584  46.0092716  57.7658609  28.9728215  45.8939382
  58.6925728  28.1099111  46.7236786  58.9824950  25.4459432  42.5994076
  59.5788522  25.2215455  41.8851039  59.0399922  24.7044178  43.2019523
  58.5549979  22.8998868  30.4344267  58.8075499  22.3780389  29.6727730
  57.6174538  22.7365013  30.5370950  63.5993261  21.9034646  38.2419010
  64.3856351  21.4854069  37.8909427  63.8631966  22.8080738  38.4100658
  63.7703339  27.3407496  32.9407667  63.1349172  27.4142123  33.6528571
  63.4400745  27.9301095  32.2626746  69.0001688  21.8409879  39.1451988
  69.7326860  21.2709096  39.3789818  68.2441044  21.4531480  39.5858494
  58.2746267  24.8026973  32.6368642  58.1582525  24.1271877  33.3049726
  58.3848527  24.3159347  31.8200795  60.6177808  24.2637121  36.3415331
  60.2536015  23.7367742  37.0528252  61.4744924  23.8735590  36.1681816
  66.5227109  15.5531453  43.6046597  66.1910434  16.4226864  43.3807812
  65.9272722  15.2367737  44.2840627  60.2583295  19.2927020  31.3376679
  60.4257698  20.1607257  31.7047150  60.0680464  19.4554302  30.4137969
  63.0158628  27.7543999  43.0042510  62.7159351  28.6569038  42.8958317
  62.6709688  27.4876182  43.8563663  56.4671110  24.2057796  39.0379214
  55.5421606  24.0734010  39.2456906  56.7155523  24.9852015  39.5349157
  66.4155772  20.2726539  40.6839947  65.5072649  20.2041948  40.3898708
  66.3643368  20.7498484  41.5121772  60.2372516  21.7484678  32.3223346
  60.1172141  22.1941729  33.1608826  59.5425104  22.0969995  31.7636884
  53.8279921  23.8491070  39.8723003  53.9572302  24.1025549  40.7862415
  53.1477372  24.4418778  39.5527658  57.9979408  34.5188320  35.9713477
  57.9203438  35.4696145  36.0501958  57.3941052  34.1734192  36.6288404
  60.4896638  21.6916185  48.6274844  59.7129972  22.2510105  48.6177709
  61.1287201  22.1772968  49.1489714  68.2817419  18.4742978  42.4617821
  67.6391799  18.7675511  41.8157615  67.7772347  18.3595898  43.2671018
  65.9357582  22.2206151  33.1503680  66.8475438  22.4533538  32.9751378
  65.4267229  22.8043195  32.5878759  58.7443010  24.5001638  48.1892811
  59.4857695  25.0386682  47.9127635  58.0379996  25.1267927  48.3464363
  64.2198350  26.6430779  46.7864973  64.6281706  26.2013189  46.0419605
  63.4975611  26.0683406  47.0399166  60.5729420  21.5803386  44.1598530
  61.4190615  22.0042799  44.3033179  60.5128058  20.9237010  44.8537093
  64.5427165  27.2031969  40.5417262  63.9136027  27.3677684  39.8393329
  64.1552827  27.6173579  41.3128226  68.4216396  28.1386407  37.8961625
  67.7367435  28.5185309  37.3458659  68.5060246  28.7481734  38.6293573
  63.7228865  19.2407754  45.8179703  63.4789797  19.9949814  45.2813979
  63.9988796  19.6193102  46.6526950  65.6767328  25.7846366  44.4956969
  65.8884223  26.4278126  43.8191350  65.6297076  24.9508683  44.0278899
  63.2793557  18.3964187  41.3993541  62.4178036  18.6945440  41.6910279
  63.3055992  18.6134586  40.4674574  60.0955126  26.9406377  37.8067347
  60.5593472  27.2194080  37.0171969  59.8311925  26.0389822  37.6240437
  56.9879207  26.4877859  40.7447110  57.5580565  26.9165127  40.1064594
  57.5787319  26.2060444  41.4431296  59.0324012  23.0629530  34.6156912
  59.7348056  23.5150574  35.0830838  58.7004641  22.4213349  35.2436805
  57.4804374  21.6541286  48.9908121  56.8503035  22.3357567  49.2243518
  57.3740462  21.5424368  48.0461260  52.7749346  21.3213083  39.9174045
  51.9848400  21.5770611  39.4414156  53.2660594  22.1361420  40.0226086
  66.7913156  28.6618322  42.6679326  67.6130600  28.2598509  42.3862008
  66.7875559  28.5586556  43.6195442  54.7264092  21.6857662  36.8757522
  53.9295255  21.7976356  37.3941018  54.4989684  22.0244314  36.0098413
  60.5569759  28.2102365  44.8240037  60.6214192  28.6722772  45.6598209
  59.8480683  27.5799730  44.9522347  51.0587049  21.5743573  42.3489036
  51.3095088  22.4590583  42.6146612  51.5946598  21.3948175  41.5764128
  74.8819149  25.0057070  39.0164298  74.1282857  24.4364468  38.8608302
  75.0166690  24.9719735  39.9634932  60.2717777  29.8770472  34.6919017
  60.1363452  30.7222008  35.1203865  60.8127590  30.0789750  33.9284951
  56.7585117  15.9562052  51.3533372  56.3652062  15.4028251  52.0281017
  57.5751257  16.2672631  51.7439890  53.7247174  27.3945911  35.2646942
  54.2371695  28.1889161  35.4152507  54.3769887  26.6972201  35.1980544
  55.5342059  30.5111667  37.3469695  55.7108688  31.4329632  37.1590679
  56.3298893  30.1970086  37.7764075  59.6753078  17.3719931  48.9453629
  60.4162791  17.9727085  48.8658091  59.9071001  16.6297569  48.3871671
  54.8194416  22.5576299  47.2231859  54.7047931  21.6561556  47.5238957
  53.9638933  22.8039995  46.8716675  61.8986253  30.4994039  48.8219359
  61.4550108  29.7130418  48.5040264  62.5603467  30.6873190  48.1563250
  56.6573375  32.0289841  43.3480038  57.2080800  31.9006904  42.5757032
  55.8184851  32.3284730  42.9974930  63.9967492  30.7796839  46.8500760
  63.9785967  31.6005720  46.3581030  64.9187412  30.6550914  47.0750902
  60.4540546  28.2940968  47.6924269  60.9868882  27.5329257  47.4623577
  59.9254627  28.0014620  48.4348423  63.6210241  13.4001034  43.2217911
  63.2774510  14.2902676  43.1457021  63.9889203  13.2102692  42.3587496
  51.6896091  25.7234565  36.0406513  52.5271313  26.1331573  35.8240220
  51.8674359  24.7834007  36.0106707  63.5860523  23.3909645  31.7290346
  63.0707147  24.1614250  31.9678733  63.3137832  22.7174782  32.3523407
  61.1707634  18.2359346  36.7875584  60.3149231  17.8466197  36.6081223
  61.5834586  18.3151307  35.9275370  62.7006781  15.7705690  41.1867144
  62.1971577  15.7335825  40.3734949  62.9937388  16.6798432  41.2463800
  58.9449667  15.8544419  40.1933326  59.8102664  15.6587228  39.8339215
  59.0127176  15.6254771  41.1202682  68.5594797  26.1442000  33.6643519
  67.7824240  25.8053160  33.2198681  69.2386278  26.1494623  32.9898484
  63.3746827  21.2636738  33.5550127  63.0696962  21.5782887  34.4060270
  64.3277269  21.3418157  33.5977460  61.8193258  27.4226961  35.2043081
  61.2914620  26.6879720  34.8916318  61.3180761  28.2001637  34.9583049
  66.7986104  25.6175981  40.3210127  66.1409779  26.3075243  40.4090256
  67.6026504  26.0072413  40.6644113  56.5511986  18.0846627  37.5649692
  57.1255738  17.8621809  36.8322885  57.1382968  18.1535322  38.3178294
  65.6091563  23.9720354  38.3714069  66.1223445  24.6050346  38.8735779
  66.2592787  23.3721550  38.0057429  56.8781573  20.1151088  31.5845578
  56.0418885  20.4525775  31.9054852  56.7386343  19.9800068  30.6472715
  58.8534654  14.9587876  36.2924762  58.1999066  14.6436893  35.6681377
  58.8115128  14.3363617  37.0184585  59.9645859  25.2407171  28.2078054
  59.0572920  25.0096425  28.4069203  60.4616891  24.4444790  28.3952035
  62.8713937  33.9504678  31.1274740  62.1975636  34.2536375  31.7359698
  63.2579759  34.7533759  30.7780197  62.0872394  21.4469810  40.6172409
  61.1694955  21.6684757  40.4594097  62.5032538  21.5216120  39.7584117
  62.8707442  22.8461225  35.7475090  63.6179261  23.3582623  35.4382212
  63.1399031  22.5245278  36.6079483  61.1434092  25.3419766  32.7302044
  60.2345311  25.0578799  32.8274514  61.1729176  25.7618845  31.8705351
  66.3753359  28.9526356  36.4993212  65.9215687  28.1117265  36.5558402
  65.7447326  29.5887754  36.8367992  65.3186279  19.8818342  37.7293879
  64.5809036  19.3695728  38.0604122  65.5713053  19.4418723  36.9177156
  64.8186299  30.7902852  37.4343030  65.1109273  31.3507909  36.7155395
  65.3284919  31.0831413  38.1896189  65.4197906  12.6594594  38.3235648
  65.7256783  11.7991957  38.0361563  66.1450511  13.2512214  38.1234642
  51.7122262  23.0625280  36.7117246  51.5146662  22.4694641  35.9868313
  51.1568926  22.7577490  37.4293185  59.6918986  22.9548387  38.8311839
  59.7467596  22.0022223  38.7554316  58.8810188  23.1107826  39.3153138
  60.8410180  26.8828510  30.0690123  60.4029610  26.1664369  29.6095760
  61.5820621  27.1104625  29.5075214  57.6311346  21.5725446  36.5902218
  56.8179211  21.8719617  36.9967410  58.1270340  21.1781135  37.3076700
  59.7819924  31.5683203  38.5236483  59.7396103  31.7944050  37.5945015
  60.6982623  31.3346578  38.6722284  63.2285558  22.0367271  45.4217112
  63.5834945  22.2638744  46.2811578  63.8757689  22.3685648  44.7994367
  68.9583295  25.1585707  36.1266441  68.8201193  25.3487303  35.1987630
  68.6019513  25.9205090  36.5834492  57.1225421  19.1443802  42.2063453
  57.7624800  19.0032561  41.5086416  56.2902951  18.8578315  41.8302055
  68.9852674  27.2262234  41.1377713  69.4189181  27.1337523  41.9860767
  69.6984255  27.2019734  40.4997729  57.8985725  28.4446232  38.3198446
  58.6926323  27.9496552  38.1181021  57.1877417  27.9164095  37.9566151
  62.7180569  30.8264328  42.6710813  62.7717591  31.3955264  43.4388529
  61.8495350  30.9966213  42.3064850  54.2068488  22.5889314  34.3958198
  53.2766076  22.5273770  34.6128160  54.3025960  22.0665267  33.5994840
  54.1254037  19.1144127  36.9836440  54.3860854  20.0289460  36.8745600
  54.9471209  18.6468569  37.1333053  55.5978962  20.5281884  44.1535264
  56.2702016  20.3199246  43.5047913  54.7708749  20.3303970  43.7140497
  69.8468224  27.2685934  43.6710598  70.0404114  28.1731745  43.9169873
  69.7468842  26.8093353  44.5049183  61.5004534  17.1543825  46.1700925
  60.8532450  17.8533775  46.0765402  62.2705550  17.5879969  46.5377174
  64.9083332  27.4192677  49.2451479  64.7568839  27.1903229  48.3281562
  64.8988012  28.3763279  49.2582824  61.6768669  24.9924590  44.2297745
  62.6060729  25.1435749  44.0566712  61.2559699  25.0808611  43.3746392
  60.4757001  29.0175254  41.9996283  60.3368086  28.6494039  42.8722221
  59.6871597  29.5322894  41.8280240  61.0705153  34.1184351  33.3421819
  61.2456908  33.6472394  34.1567442  60.3837941  34.7450117  33.5703080
  62.0262216  28.3956857  39.3885120  61.6912048  28.3557627  40.2842770
  61.5266161  27.7301573  38.9155531  56.0006460  23.8024487  44.9137702
  55.8626258  23.0704726  45.5149241  56.9111383  23.7133387  44.6321889
  64.9621407  25.7412891  29.6622180  64.3450578  25.0159720  29.5655233
  64.4937896  26.5022252  29.3189254  58.6288760  23.5144446  44.4021381
  59.3388379  22.8737639  44.3608000  58.5858069  23.7657341  45.3247562
  66.6175539  30.4511800  47.3227960  66.5588085  29.7671020  46.6558544
  67.0195057  31.1930790  46.8708586  57.3417694  20.5009664  46.2217021
  56.8055051  20.0500403  46.8738617  56.7534403  20.6355573  45.4787485
  55.6366238  37.2673714  40.1161679  55.8762836  37.8992238  40.7940698
  54.7935434  36.9161754  40.4027039  56.7519953  19.9598316  28.7843484
  55.8749420  19.8387116  28.4205731  57.2277706  19.1684394  28.5322373
  66.6192946  28.4151384  45.5541940  65.7319725  28.0777305  45.6768339
  67.1891497  27.6834415  45.7910706  48.2722093  24.7475475  38.8784992
  48.9593133  24.4337205  38.2906007  48.1170222  25.6516840  38.6052243
  53.0756816  19.6365672  43.3070015  52.9915004  19.0291341  42.5720425
  52.2539522  20.1274690  43.3079512  60.1494100  33.0752836  42.5203183
  60.0764271  33.8807807  43.0322488  59.7071493  33.2744802  41.6951205
  59.9383879  32.3124606  36.0306005  59.1551401  32.8546286  36.1244229
  60.6376625  32.8298586  36.4300246  63.2480529  18.1219235  38.6740210
  63.7449229  17.3689198  38.3541281  62.4767511  18.1583552  38.1083420
  71.1010287  23.8259601  40.3158502  71.0900163  24.7084316  39.9452435
  70.2327666  23.4731152  40.1213039  62.6092783  32.9739670  44.6761342
  63.3220755  33.6087135  44.6037243  62.1182812  33.0703536  43.8601344
  64.3310310  26.8790923  36.2478634  63.3966589  26.9992385  36.0783338
  64.5086979  25.9763389  35.9838644  59.8315498  20.2636618  38.4011895
  59.4613286  19.7107659  39.0892800  60.3274591  19.6594752  37.8486895
  67.7182862  22.7208242  36.7828668  68.1843314  23.5536234  36.7088970
  68.1690362  22.2553224  37.4873926  57.6604697  30.7234113  45.4966913
  58.3614156  31.3570596  45.6496307  57.1899812  31.0648845  44.7362552
  65.7859093  29.0652063  33.7814820  66.0618937  28.9508658  34.6908694
  64.9163591  28.6669548  33.7426993  65.6899524  15.0888829  40.8219569
  64.7762604  15.3193056  40.9901776  66.1192626  15.1727273  41.6733602
  65.4605983  23.2778721  43.3219463  64.8077433  23.5254628  42.6671916
  65.8386363  22.4642859  42.9881940  62.4213157  33.3138414  37.4247633
  62.6035551  32.4960070  37.8875386  63.2446143  33.5306106  36.9872523
  62.7555322  32.2406599  34.6862682  63.2843089  31.7299054  34.0732844
  63.0183542  31.9249129  35.5508215  61.5093556  24.0198532  49.8085500
  60.8334193  23.9192661  50.4787875  62.3321190  23.8637746  50.2721497
  53.2572415  30.2570469  42.4298016  53.8425852  29.5114156  42.5625920
  53.0597253  30.5674425  43.3134679  56.1111070  33.2921716  37.4460458
  55.4421445  33.7767844  36.9624498  55.9723940  33.5390936  38.3603836
  47.8490070  22.8276069  41.1502459  47.8874169  22.2939659  41.9439577
  47.3430362  22.3011274  40.5313436  60.2516339  35.3265459  44.0443116
  60.8034647  35.4897081  44.8092201  60.5922532  35.9169897  43.3723141
  55.2280832  17.6740609  44.6465001  55.2922158  18.5355440  44.2342399
  55.1647952  17.0614611  43.9137359  54.7033104  19.7463742  48.2938035
  55.3305143  19.3640819  48.9075560  53.8461023  19.5277944  48.6593728
  65.1027213  30.1526717  49.8991771  65.6467117  30.7656675  49.4046725
  64.5214058  30.7106295  50.4158784  51.4798647  21.5540171  34.2256390
  51.7752088  20.6450849  34.1723444  50.5786683  21.5327910  33.9037392
  63.3884726  33.2747435  41.0306798  63.2635865  32.4737175  40.5217744
  64.0463817  33.7693628  40.5420768  55.0092894  19.6296167  40.2083939
  54.2879480  20.2432135  40.0691412  55.7986150  20.1653932  40.1300585
  65.4519634  31.0756455  42.6586349  64.5049970  30.9561806  42.5864675
  65.8002407  30.1878953  42.7412610  57.8119208  16.9650594  46.4824590
  58.3353610  17.2112890  47.2450900  57.5931541  17.7970629  46.0627728
  53.2086489  19.2354269  34.3495715  52.8799195  18.3551647  34.1670821
  53.5625859  19.1801937  35.2372104  62.4566068  30.8709171  38.8590701
  62.3091030  29.9425879  39.0398271  63.2819561  30.8929262  38.3747776
  56.3228312  19.5227238  34.7171193  56.6624384  20.0513160  33.9949801
  56.7700432  19.8607644  35.4929759  66.0600189  31.6937730  39.9455574
  66.9846737  31.4880591  39.8080025  65.8915493  31.4454131  40.8544915
  59.0171753  17.9064289  44.1674261  58.6768573  17.1072102  44.5694941
  58.3110759  18.2066000  43.5951094  59.6688225  14.9913601  42.6201584
  60.4914294  14.5174080  42.4980474  59.9126288  15.7704085  43.1200270
  58.3096459  18.0201860  32.9164486  59.0304822  18.3983113  32.4128203
  57.6861763  18.7390737  33.0199464  62.4527582  18.7247009  33.8522818
  62.6691196  19.6071647  33.5511646  61.9721649  18.3333222  33.1228460
  57.1926803  21.6832722  40.4293563  57.0471384  21.9973025  41.3217844
  56.7152007  22.3017622  39.8764461  59.0523186  18.6735270  40.4774452
  59.0384755  17.7776363  40.1406750  59.7695614  18.6805934  41.1112738
  60.9049317  19.1072610  42.5227580  60.6467095  20.0289681  42.5211910
  60.3734357  18.7103045  43.2128044  65.8495506  32.2123397  35.3017665
  66.0232383  31.6469820  34.5491517  66.3424397  33.0124292  35.1197155
  51.6672465  24.2238067  43.3681224  51.1225934  24.9997874  43.5001498
  52.5451815  24.5708871  43.2100345  58.4560082  17.5549650  35.7462022
  58.5775993  16.6266297  35.9452910  58.1662125  17.5688336  34.8340338
  61.3251273  15.2404561  38.8828742  61.3472969  15.3043894  37.9280722
  61.7419332  14.4009069  39.0769248  71.7034897  24.9759820  36.9207965
  72.1466043  24.2267146  36.5227088  70.8261407  24.9669957  36.5381697
  66.8370678  31.5290162  32.4014563  67.5321583  32.1496855  32.6201878
  67.1793828  30.6785513  32.6766941  52.4538487  23.3507963  46.2611381
  51.7120223  23.4990598  46.8476011  52.1331232  23.6116228  45.3978130
  68.7362101  28.9789867  33.9301894  69.2613425  29.3177140  33.2051214
  68.6484454  28.0436883  33.7465029  60.3982150  32.8923941  46.0591771
  60.7069276  32.6473088  46.9314470  61.1957632  33.0970579  45.5710641
  60.4202762  35.0461851  38.2897147  59.9807752  34.5538229  38.9830004
  61.1710879  34.5034818  38.0489222  52.8995101  31.2373392  38.2921775
  53.7253121  30.9377163  37.9120419  52.5489153  30.4681014  38.7411564
  57.8676634  30.5899860  40.3619449  57.2456643  29.9270565  40.0621677
  58.5381501  30.6160992  39.6793097  51.1003706  29.1559718  39.2510709
  50.2635614  28.7281892  39.0694710  51.0727351  29.3492161  40.1881500
  57.9401162  19.0681648  49.9551955  57.9889317  19.9443771  49.5729724
  58.4823676  18.5259041  49.3823598  68.4256007  29.6122771  49.2353092
  67.6351551  29.5946910  48.6957591  68.1889362  30.1511065  49.9902129
  68.5453882  26.4615237  46.5485820  68.5951887  26.2965245  47.4901343
  68.4367806  25.5942496  46.1583701  57.4290141  29.1403783  33.8377909
  57.5778261  29.8239247  33.1844582  58.2356585  29.1208873  34.3527365
  65.8357645  22.4446165  47.8645127  66.7367508  22.3052630  47.5729125
  65.9105619  22.6100620  48.8043305  60.1700450  19.8213020  46.7098314
  59.3003760  20.1146586  46.4380902  60.4059930  20.4053465  47.4305577
  70.0472079  28.8812179  46.7927842  69.7556888  29.2442159  47.6291303
  69.4344211  28.1679187  46.6141174  71.2467762  26.4465059  39.3130412
  72.0814653  26.8854863  39.4767973  71.3826890  25.9703712  38.4938658
  68.2959267  24.0044794  45.2607900  68.7713389  24.1972440  44.4526751
  67.3724833  24.0603979  45.0151284  55.1842774  25.1668961  34.8438978
  54.9388816  24.2631291  35.0419188  55.3538689  25.1686111  33.9018456
  62.8739484  16.0392637  44.2263734  63.3921428  16.7753664  43.9010222
  62.5194617  16.3456630  45.0610493  54.4538422  20.8997318  32.3425140
  53.7607667  20.9741673  31.6865176  54.2090174  20.1357662  32.8646657
  63.1252078  12.4592920  39.7464631  63.4053832  11.7916109  40.3725057
  63.9102685  12.6522015  39.2339294  60.9285547  31.6351914  31.3089657
  60.3559514  32.2542101  30.8560129  61.5018340  32.1851275  31.8429579
  66.9960936  20.8810554  43.4936206  67.9478359  20.9808651  43.5148430
  66.8264387  20.0888822  44.0034290  65.0175316  17.9666137  43.6795607
  64.4225248  18.2471150  42.9842095  64.7325013  18.4560038  44.4512348
  64.1482806  31.9189064  32.4398239  65.0813480  31.8534625  32.6431115
  64.0606019  32.7545331  31.9812772  66.7770823  31.2354934  29.4002187
  66.6984455  30.9014798  30.2937945  67.5980490  31.7276702  29.3993659
  69.4749014  24.1016673  42.6078505  69.4425334  23.1632674  42.7938189
  70.0849638  24.1800710  41.8744330  61.3132345  22.9712726  28.6505709
  62.2591450  22.8418934  28.7194127  60.9346590  22.2327388  29.1275137
  69.6243503  20.8927717  42.6536788  69.1082551  20.1086173  42.4666717
  70.5083451  20.5646433  42.8183308  67.2854230  14.6368732  38.6132601
  67.0879051  14.3283820  39.4975933  67.8953935  15.3630371  38.7430531
  75.2925564  25.1632680  41.7484542  76.0228953  24.9017968  42.3092245
  74.6832510  24.4261402  41.7886610  73.3740861  23.3040543  42.3458993
  72.6474025  23.1696508  41.7375485  72.9588148  23.6117371  43.1515711
  61.1971038  27.0230472  50.1106366  62.1174047  27.2009071  50.3046413
  61.1620621  26.0786518  49.9586066  59.4975262  20.8962703  28.5860595
  58.5906718  20.5995815  28.6623308  59.7751243  20.5992521  27.7194881
  50.4153203  22.2169066  39.0359641  50.0955987  21.3634374  38.7434015
  49.8686631  22.4317644  39.7917608  54.1933110  24.9331507  42.7529147
  54.4119120  25.8648615  42.7717181  54.6058884  24.5739481  43.5383951
  61.1137328  15.4399592  34.7404836  60.3038056  15.0946677  35.1160082
  61.8021745  15.1307136  35.3292447  63.0427876  14.5177639  36.3629132
  63.5958915  14.9373093  37.0219156  63.2797963  13.5913387  36.4052088
  59.0660976  20.5064713  52.1431896  58.9657702  21.4559070  52.0743987
  58.8482518  20.1782952  51.2707966  58.2674047  17.7549638  28.7272574
  59.1293211  18.0804536  28.9868391  58.4524391  16.9681134  28.2145640
  50.2841463  25.8371978  41.0052763  49.5904934  25.4225930  40.4922717
  51.0314454  25.8792514  40.4086181  66.4206683  16.6278164  35.8707797
  65.8405352  17.2862968  35.4885849  66.1542616  15.8055509  35.4595214
  64.8710250  16.0283222  38.0729117  65.3710028  16.1399757  37.2643436
  65.5145858  15.7244275  38.7129926  58.9292246  23.9361852  50.9596958
  58.4459327  24.7362212  51.1660847  59.0153185  23.9469797  50.0064402
  52.1978205  25.7690231  38.8818777  52.1748893  25.8677919  37.9300661
  52.5078842  26.6155382  39.2035944  54.8565583  27.8266386  42.9965392
  55.8108837  27.7950329  42.9295323  54.6578107  27.3657010  43.8115618
  55.4464965  26.3967502  45.5636189  56.2657854  26.8911581  45.5871027
  55.7201773  25.4799471  45.5353757  65.2031561  18.7878255  34.9264145
  64.3157416  19.0727905  34.7084340  65.6185550  18.6272018  34.0791422
  68.5546098  18.8124776  38.6418484  69.3306488  19.3021228  38.9143101
  67.8294232  19.2382830  39.0990354  70.9918656  19.5252395  39.6992425
  71.5863147  19.2848131  38.9885733  71.0645240  18.8059525  40.3265961
  53.2115812  33.3686006  40.0135590  53.0770280  32.6086407  39.4473588
  52.7947874  34.0926906  39.5464379  64.3474775  28.5522929  29.0212165
  65.0510625  28.7572932  29.6369821  63.6237424  29.1199691  29.2861249
  65.1772585  24.3032791  35.1414435  65.1207787  24.7601342  34.3022068
  65.7300928  23.5423475  34.9637278  68.9877391  20.0922523  35.9664555
  68.7314325  19.6919158  36.7972762  68.3630259  20.8066316  35.8414694
  73.2989729  22.8318596  38.4735846  72.7389287  22.9011785  39.2467408
  72.6933232  22.6559580  37.7535342  56.3684938  34.2655323  40.2254032
  56.2517322  35.2100755  40.1232723  55.5477384  33.9628884  40.6139832
  66.2561472  28.9905459  31.0710625  67.0907076  28.5586657  30.8888100
  66.0945815  28.8187472  31.9987520  65.9107364  25.4937572  32.4366964
  65.8556168  25.3281843  31.4955408  65.2853420  26.2013605  32.5929154
  50.6999879  20.7305636  46.2628387  51.3458743  20.2204590  46.7515612
  50.4917031  21.4674318  46.8371812  63.2253272  27.7986484  51.7620527
  64.0944431  27.9727136  51.4007162  62.7460023  28.6180901  51.6396256
  59.2203490  14.9945681  32.0152283  59.2082160  15.9387521  32.1720554
  60.1126912  14.8115826  31.7211744  57.3939452  34.9183585  43.4409961
  58.2966699  34.9507195  43.7576456  57.1676822  33.9884036  43.4556297
  59.1493054  33.6714571  40.1020039  58.1988685  33.6716433  39.9884412
  59.4525540  32.9247306  39.5856074  63.0355609  11.5888458  36.2698220
  62.2688005  11.0346944  36.4154902  63.4466314  11.6610326  37.1312371
  55.0397370  17.8773253  50.3603401  55.9028832  17.5210058  50.5706725
  54.4662781  17.5387148  51.0478805  74.8845747  39.5075110  41.1665802
  75.5224157  39.3881857  40.4629142  74.7666590  40.4555954  41.2253754
  71.6935454  39.4602538  41.1027326  71.3553965  39.3443603  40.2147861
  72.5625222  39.0593703  41.0828333  67.5522269  41.3138014  37.0924217
  66.9887134  41.2227951  36.3240505  67.4374664  40.4937919  37.5726710
  72.1755237  40.6137390  47.0613532  72.1643877  40.2190188  46.1894036
  72.3375876  39.8803462  47.6547303  65.0986701  42.8089206  39.9308438
  65.8907993  42.4680030  39.5154737  65.3383351  42.9184181  40.8510591
  73.1321828  44.9808982  32.4038682  72.4809808  45.5663062  32.0172696
  73.9266191  45.5115177  32.4633720  67.0577455  42.0698119  32.8025817
  67.8308331  41.5227106  32.6638692  67.4102854  42.9342368  33.0140278
  68.8962498  43.3974501  46.0092716  68.6052364  44.3020132  45.8939382
  69.5319482  43.4391029  46.7236786  69.8218705  40.7751350  42.5994076
  70.4182277  40.5507372  41.8851039  69.8793676  40.0336095  43.2019523
  69.3943733  38.2290785  30.4344267  69.6469254  37.7072306  29.6727730
  68.4568292  38.0656931  30.5370950  74.4387016  37.2326564  38.2419010
  75.2250105  36.8145987  37.8909427  74.7025720  38.1372656  38.4100658
  74.6097093  42.6699414  32.9407667  73.9742926  42.7434040  33.6528571
  74.2794500  43.2593013  32.2626746  69.1140022  40.1318891  32.6368642
  68.9976280  39.4563795  33.3049726  69.2242282  39.6451265  31.8200795
  71.4571563  39.5929038  36.3415331  71.0929770  39.0659659  37.0528252
  72.3138679  39.2027507  36.1681816  77.3620863  30.8823371  43.6046597
  77.0304188  31.7518782  43.3807812  76.7666477  30.5659655  44.2840627
  71.0977050  34.6218938  31.3376679  71.2651452  35.4899174  31.7047150
  70.9074219  34.7846220  30.4137969  73.8552383  43.0835917  43.0042510
  73.5553106  43.9860956  42.8958317  73.5103442  42.8168100  43.8563663
  67.3064864  39.5349714  39.0379214  66.3815361  39.4025928  39.2456906
  67.5549278  40.3143933  39.5349157  77.2549527  35.6018457  40.6839947
  76.3466404  35.5333865  40.3898708  77.2037122  36.0790402  41.5121772
  71.0766271  37.0776595  32.3223346  70.9565896  37.5233646  33.1608826
  70.3818859  37.4261913  31.7636884  64.6673675  39.1782987  39.8723003
  64.7966057  39.4317466  40.7862415  63.9871127  39.7710695  39.5527658
  68.8373163  49.8480237  35.9713477  68.7597192  50.7988062  36.0501958
  68.2334806  49.5026110  36.6288404  71.3290392  37.0208103  48.6274844
  70.5523726  37.5802023  48.6177709  71.9680955  37.5064886  49.1489714
  76.7751337  37.5498069  33.1503680  77.6869193  37.7825455  32.9751378
  76.2660984  38.1335113  32.5878759  69.5836765  39.8293556  48.1892811
  70.3251449  40.3678600  47.9127635  68.8773750  40.4559845  48.3464363
  75.0592104  41.9722696  46.7864973  75.4675460  41.5305107  46.0419605
  74.3369366  41.3975324  47.0399166  71.4123174  36.9095303  44.1598530
  72.2584370  37.3334717  44.3033179  71.3521812  36.2528928  44.8537093
  75.3820919  42.5323887  40.5417262  74.7529781  42.6969601  39.8393329
  74.9946581  42.9465497  41.3128226  74.5622620  34.5699672  45.8179703
  74.3183552  35.3241732  45.2813979  74.8382550  34.9485019  46.6526950
  76.5161083  41.1138284  44.4956969  76.7277978  41.7570044  43.8191350
  76.4690831  40.2800601  44.0278899  74.1187311  33.7256105  41.3993541
  73.2571791  34.0237358  41.6910279  74.1449746  33.9426504  40.4674574
  70.9348881  42.2698295  37.8067347  71.3987226  42.5485998  37.0171969
  70.6705679  41.3681740  37.6240437  67.8272962  41.8169777  40.7447110
  68.3974319  42.2457045  40.1064594  68.4181074  41.5352361  41.4431296
  69.8717767  38.3921448  34.6156912  70.5741810  38.8442491  35.0830838
  69.5398395  37.7505266  35.2436805  68.3198128  36.9833204  48.9908121
  67.6896789  37.6649485  49.2243518  68.2134216  36.8716286  48.0461260
  63.6143101  36.6505000  39.9174045  62.8242155  36.9062529  39.4414156
  64.1054348  37.4653338  40.0226086  77.6306910  43.9910239  42.6679326
  78.4524354  43.5890427  42.3862008  77.6269313  43.8878474  43.6195442
  65.5657846  37.0149579  36.8757522  64.7689010  37.1268274  37.3941018
  65.3383438  37.3536232  36.0098413  71.3963514  43.5394283  44.8240037
  71.4607946  44.0014690  45.6598209  70.6874438  42.9091648  44.9522347
  61.8980804  36.9035491  42.3489036  62.1488842  37.7882501  42.6146612
  62.4340352  36.7240092  41.5764128  71.1111532  45.2062390  34.6919017
  70.9757206  46.0513926  35.1203865  71.6521344  45.4081668  33.9284951
  67.5978871  31.2853970  51.3533372  67.2045817  30.7320169  52.0281017
  68.4145012  31.5964548  51.7439890  64.5640929  42.7237828  35.2646942
  65.0765450  43.5181078  35.4152507  65.2163642  42.0264119  35.1980544
  66.3735814  45.8403584  37.3469695  66.5502442  46.7621549  37.1590679
  67.1692647  45.5262004  37.7764075  70.5146832  32.7011849  48.9453629
  71.2556546  33.3019002  48.8658091  70.7464755  31.9589487  48.3871671
  65.6588170  37.8868216  47.2231859  65.5441685  36.9853474  47.5238957
  64.8032688  38.1331913  46.8716675  72.7380008  45.8285957  48.8219359
  72.2943862  45.0422335  48.5040264  73.3997222  46.0165107  48.1563250
  67.4967129  47.3581758  43.3480038  68.0474554  47.2298822  42.5757032
  66.6578605  47.6576647  42.9974930  74.8361246  46.1088757  46.8500760
  74.8179721  46.9297638  46.3581030  75.7581166  45.9842832  47.0750902
  71.2934300  43.6232886  47.6924269  71.8262637  42.8621174  47.4623577
  70.7648381  43.3306538  48.4348423  74.4603995  28.7292952  43.2217911
  74.1168265  29.6194594  43.1457021  74.8282958  28.5394610  42.3587496
  62.5289846  41.0526483  36.0406513  63.3665068  41.4623491  35.8240220
  62.7068113  40.1125925  36.0106707  74.4254278  38.7201563  31.7290346
  73.9100901  39.4906168  31.9678733  74.1531586  38.0466699  32.3523407
  72.0101389  33.5651264  36.7875584  71.1542985  33.1758114  36.6081223
  72.4228341  33.6443225  35.9275370  73.5400536  31.0997607  41.1867144
  73.0365331  31.0627742  40.3734949  73.8331142  32.0090350  41.2463800
  69.7843421  31.1836337  40.1933326  70.6496418  30.9879146  39.8339215
  69.8520930  30.9546689  41.1202682  74.2140581  36.5928655  33.5550127
  73.9090717  36.9074804  34.4060270  75.1671023  36.6710075  33.5977460
  72.6587013  42.7518879  35.2043081  72.1308374  42.0171638  34.8916318
  72.1574516  43.5293555  34.9583049  77.6379859  40.9467899  40.3210127
  76.9803533  41.6367160  40.4090256  78.4420258  41.3364331  40.6644113
  67.3905740  33.4138545  37.5649692  67.9649492  33.1913726  36.8322885
  67.9776723  33.4827239  38.3178294  76.4485318  39.3012272  38.3714069
  76.9617199  39.9342264  38.8735779  77.0986542  38.7013467  38.0057429
  67.7175328  35.4443006  31.5845578  66.8812640  35.7817692  31.9054852
  67.5780097  35.3091986  30.6472715  69.6928408  30.2879794  36.2924762
  69.0392821  29.9728811  35.6681377  69.6508882  29.6655534  37.0184585
  70.8039613  40.5699089  28.2078054  69.8966675  40.3388342  28.4069203
  71.3010645  39.7736708  28.3952035  73.7107692  49.2796596  31.1274740
  73.0369391  49.5828293  31.7359698  74.0973514  50.0825676  30.7780197
  72.9266149  36.7761727  40.6172409  72.0088710  36.9976674  40.4594097
  73.3426292  36.8508038  39.7584117  73.7101196  38.1753143  35.7475090
  74.4573015  38.6874540  35.4382212  73.9792786  37.8537196  36.6079483
  71.9827846  40.6711684  32.7302044  71.0739066  40.3870717  32.8274514
  72.0122930  41.0910762  31.8705351  77.2147114  44.2818273  36.4993212
  76.7609441  43.4409183  36.5558402  76.5841081  44.9179672  36.8367992
  76.1580033  35.2110259  37.7293879  75.4202790  34.6987645  38.0604122
  76.4106807  34.7710641  36.9177156  75.6580053  46.1194770  37.4343030
  75.9503028  46.6799827  36.7155395  76.1678674  46.4123331  38.1896189
  76.2591661  27.9886511  38.3235648  76.5650538  27.1283875  38.0361563
  76.9844266  28.5804131  38.1234642  62.5516017  38.3917198  36.7117246
  62.3540417  37.7986559  35.9868313  61.9962681  38.0869408  37.4293185
  70.5312741  38.2840304  38.8311839  70.5861350  37.3314141  38.7554316
  69.7203943  38.4399743  39.3153138  71.6803934  42.2120427  30.0690123
  71.2423364  41.4956286  29.6095760  72.4214375  42.4396542  29.5075214
  68.4705100  36.9017364  36.5902218  67.6572966  37.2011535  36.9967410
  68.9664095  36.5073053  37.3076700  70.6213678  46.8975121  38.5236483
  70.5789857  47.1235967  37.5945015  71.5376377  46.6638496  38.6722284
  74.0679312  37.3659189  45.4217112  74.4228700  37.5930662  46.2811578
  74.7151443  37.6977565  44.7994367  67.9619175  34.4735720  42.2063453
  68.6018555  34.3324479  41.5086416  67.1296706  34.1870233  41.8302055
  68.7379479  43.7738150  38.3198446  69.5320078  43.2788470  38.1181021
  68.0271172  43.2456013  37.9566151  73.5574324  46.1556246  42.6710813
  73.6111346  46.7247182  43.4388529  72.6889105  46.3258131  42.3064850
  65.0462243  37.9181232  34.3958198  64.1159831  37.8565687  34.6128160
  65.1419715  37.3957184  33.5994840  64.9647792  34.4436045  36.9836440
  65.2254609  35.3581378  36.8745600  65.7864964  33.9760487  37.1333053
  66.4372717  35.8573802  44.1535264  67.1095770  35.6491164  43.5047913
  65.6102503  35.6595888  43.7140497  72.3398289  32.4835743  46.1700925
  71.6926204  33.1825692  46.0765402  73.1099304  32.9171887  46.5377174
  75.7477087  42.7484595  49.2451479  75.5962593  42.5195147  48.3281562
  75.7381766  43.7055196  49.2582824  72.5162423  40.3216508  44.2297745
  73.4454483  40.4727667  44.0566712  72.0953453  40.4100528  43.3746392
  71.3150755  44.3467172  41.9996283  71.1761841  43.9785956  42.8722221
  70.5265351  44.8614811  41.8280240  71.9098907  49.4476268  33.3421819
  72.0850663  48.9764312  34.1567442  71.2231695  50.0742035  33.5703080
  72.8655970  43.7248775  39.3885120  72.5305803  43.6849545  40.2842770
  72.3659916  43.0593491  38.9155531  66.8400214  39.1316405  44.9137702
  66.7020012  38.3996644  45.5149241  67.7505138  39.0425305  44.6321889
  75.8015162  41.0704809  29.6622180  75.1844333  40.3451637  29.5655233
  75.3331650  41.8314169  29.3189254  69.4682515  38.8436364  44.4021381
  70.1782133  38.2029556  44.3608000  69.4251823  39.0949259  45.3247562
  77.4569294  45.7803717  47.3227960  77.3981840  45.0962937  46.6558544
  77.8588812  46.5222707  46.8708586  68.1811449  35.8301582  46.2217021
  67.6448806  35.3792320  46.8738617  67.5928157  35.9647491  45.4787485
  66.4759992  52.5965631  40.1161679  66.7156591  53.2284155  40.7940698
  65.6329189  52.2453671  40.4027039  67.5913708  35.2890233  28.7843484
  66.7143174  35.1679034  28.4205731  68.0671461  34.4976312  28.5322373
  77.4586701  43.7443301  45.5541940  76.5713480  43.4069223  45.6768339
  78.0285252  43.0126333  45.7910706  59.1115848  40.0767393  38.8784992
  59.7986888  39.7629123  38.2906007  58.9563977  40.9808758  38.6052243
  63.9150570  34.9657590  43.3070015  63.8308759  34.3583259  42.5720425
  63.0933277  35.4566608  43.3079512  70.9887854  48.4044754  42.5203183
  70.9158026  49.2099725  43.0322488  70.5465247  48.6036719  41.6951205
  70.7777634  47.6416524  36.0306005  69.9945156  48.1838204  36.1244229
  71.4770379  48.1590503  36.4300246  74.0874284  33.4511153  38.6740210
  74.5842984  32.6981115  38.3541281  73.3161265  33.4875470  38.1083420
  73.4486538  48.3031588  44.6761342  74.1614510  48.9379053  44.6037243
  72.9576566  48.3995454  43.8601344  75.1704065  42.2082840  36.2478634
  74.2360343  42.3284303  36.0783338  75.3480733  41.3055307  35.9838644
  70.6709253  35.5928536  38.4011895  70.3007040  35.0399577  39.0892800
  71.1668345  34.9886670  37.8486895  68.4998451  46.0526031  45.4966913
  69.2007911  46.6862514  45.6496307  68.0293566  46.3940763  44.7362552
  76.6252847  44.3943981  33.7814820  76.9012691  44.2800576  34.6908694
  75.7557346  43.9961466  33.7426993  76.5293279  30.4180747  40.8219569
  75.6156359  30.6484973  40.9901776  76.9586380  30.5019191  41.6733602
  76.2999737  38.6070639  43.3219463  75.6471187  38.8546546  42.6671916
  76.6780117  37.7934777  42.9881940  73.2606911  48.6430332  37.4247633
  73.4429306  47.8251988  37.8875386  74.0839897  48.8598024  36.9872523
  73.5949077  47.5698517  34.6862682  74.1236843  47.0590971  34.0732844
  73.8577296  47.2541047  35.5508215  72.3487310  39.3490450  49.8085500
  71.6727947  39.2484579  50.4787875  73.1714944  39.1929663  50.2721497
  64.0966169  45.5862386  42.4298016  64.6819606  44.8406074  42.5625920
  63.8991008  45.8966343  43.3134679  66.9504825  48.6213634  37.4460458
  66.2815200  49.1059761  36.9624498  66.8117694  48.8682854  38.3603836
  58.6883824  38.1567986  41.1502459  58.7267924  37.6231577  41.9439577
  58.1824117  37.6303192  40.5313436  71.0910093  50.6557377  44.0443116
  71.6428401  50.8188999  44.8092201  71.4316287  51.2461815  43.3723141
  66.0674586  33.0032527  44.6465001  66.1315913  33.8647358  44.2342399
  66.0041707  32.3906529  43.9137359  65.5426859  35.0755659  48.2938035
  66.1698898  34.6932737  48.9075560  64.6854778  34.8569861  48.6593728
  75.9420967  45.4818635  49.8991771  76.4860871  46.0948593  49.4046725
  75.3607812  46.0398213  50.4158784  62.3192402  36.8832089  34.2256390
  62.6145843  35.9742767  34.1723444  61.4180437  36.8619828  33.9037392
  74.2278480  48.6039353  41.0306798  74.1029620  47.8029092  40.5217744
  74.8857572  49.0985546  40.5420768  65.8486649  34.9588085  40.2083939
  65.1273234  35.5724053  40.0691412  66.6379904  35.4945850  40.1300585
  76.2913389  46.4048373  42.6586349  75.3443724  46.2853724  42.5864675
  76.6396162  45.5170871  42.7412610  68.6512962  32.2942512  46.4824590
  69.1747364  32.5404808  47.2450900  68.4325295  33.1262546  46.0627728
  64.0480243  34.5646186  34.3495715  63.7192949  33.6843565  34.1670821
  64.4019614  34.5093855  35.2372104  73.2959822  46.2001089  38.8590701
  73.1484785  45.2717796  39.0398271  74.1213316  46.2221180  38.3747776
  67.1622066  34.8519156  34.7171193  67.5018139  35.3805077  33.9949801
  67.6094187  35.1899562  35.4929759  76.8993944  47.0229648  39.9455574
  77.8240491  46.8172509  39.8080025  76.7309247  46.7746049  40.8544915
  69.8565507  33.2356207  44.1674261  69.5162328  32.4364020  44.5694941
  69.1504513  33.5357918  43.5951094  70.5081979  30.3205519  42.6201584
  71.3308048  29.8465997  42.4980474  70.7520043  31.0996003  43.1200270
  69.1490214  33.3493778  32.9164486  69.8698576  33.7275030  32.4128203
  68.5255518  34.0682654  33.0199464  73.2921336  34.0538927  33.8522818
  73.5084951  34.9363564  33.5511646  72.8115404  33.6625140  33.1228460
  68.0320558  37.0124640  40.4293563  67.8865139  37.3264943  41.3217844
  67.5545761  37.6309540  39.8764461  69.8916941  34.0027188  40.4774452
  69.8778509  33.1068281  40.1406750  70.6089369  34.0097852  41.1112738
  71.7443071  34.4364528  42.5227580  71.4860849  35.3581599  42.5211910
  71.2128112  34.0394963  43.2128044  76.6889260  47.5415315  35.3017665
  76.8626138  46.9761738  34.5491517  77.1818151  48.3416210  35.1197155
  62.5066220  39.5529984  43.3681224  61.9619688  40.3289792  43.5001498
  63.3845570  39.9000789  43.2100345  69.2953837  32.8841568  35.7462022
  69.4169748  31.9558214  35.9452910  69.0055879  32.8980254  34.8340338
  72.1645027  30.5696479  38.8828742  72.1866724  30.6335812  37.9280722
  72.5813086  29.7300987  39.0769248  77.6764433  46.8582080  32.4014563
  78.3715337  47.4788772  32.6201878  78.0187583  46.0077431  32.6766941
  63.2932242  38.6799880  46.2611381  62.5513978  38.8282516  46.8476011
  62.9724986  38.9408146  45.3978130  71.2375904  48.2215859  46.0591771
  71.5463031  47.9765005  46.9314470  72.0351386  48.4262497  45.5710641
  71.2596517  50.3753768  38.2897147  70.8201507  49.8830147  38.9830004
  72.0104633  49.8326736  38.0489222  63.7388856  46.5665309  38.2921775
  64.5646875  46.2669081  37.9120419  63.3882907  45.7972932  38.7411564
  68.7070389  45.9191777  40.3619449  68.0850398  45.2562482  40.0621677
  69.3775256  45.9452909  39.6793097  61.9397461  44.4851636  39.2510709
  61.1029369  44.0573810  39.0694710  61.9121106  44.6784079  40.1881500
  68.7794916  34.3973565  49.9551955  68.8283072  35.2735688  49.5729724
  69.3217430  33.8550958  49.3823598  68.2683896  44.4695701  33.8377909
  68.4172016  45.1531165  33.1844582  69.0750339  44.4500791  34.3527365
  76.6751399  37.7738083  47.8645127  77.5761262  37.6344548  47.5729125
  76.7499374  37.9392538  48.8043305  71.0094205  35.1504938  46.7098314
  70.1397514  35.4438504  46.4380902  71.2453685  35.7345383  47.4305577
  66.0236529  40.4960878  34.8438978  65.7782571  39.5923208  35.0419188
  66.1932443  40.4978029  33.9018456  73.7133238  31.3684555  44.2263734
  74.2315182  32.1045582  43.9010222  73.3588371  31.6748548  45.0610493
  65.2932176  36.2289236  32.3425140  64.6001421  36.3033591  31.6865176
  65.0483928  35.4649580  32.8646657  73.9645833  27.7884837  39.7464631
  74.2447586  27.1208026  40.3725057  74.7496440  27.9813933  39.2339294
  71.7679301  46.9643831  31.3089657  71.1953268  47.5834018  30.8560129
  72.3412095  47.5143193  31.8429579  75.8569070  33.2958055  43.6795607
  75.2619003  33.5763067  42.9842095  75.5718767  33.7851955  44.4512348
  74.9876561  47.2480981  32.4398239  75.9207234  47.1826543  32.6431115
  74.8999774  48.0837248  31.9812772  77.6164578  46.5646852  29.4002187
  77.5378209  46.2306715  30.2937945  78.4374244  47.0568620  29.3993659
  72.1526100  38.3004644  28.6505709  73.0985204  38.1710852  28.7194127
  71.7740345  37.5619306  29.1275137  72.0364792  42.3522390  50.1106366
  72.9567802  42.5300989  50.3046413  72.0014375  41.4078435  49.9586066
  70.3369017  36.2254620  28.5860595  69.4300472  35.9287733  28.6623308
  70.6144998  35.9284438  27.7194881  61.2546957  37.5460984  39.0359641
  60.9349741  36.6926292  38.7434015  60.7080385  37.7609562  39.7917608
  65.0326865  40.2623425  42.7529147  65.2512874  41.1940533  42.7717181
  65.4452639  39.9031399  43.5383951  71.9531082  30.7691510  34.7404836
  71.1431811  30.4238595  35.1160082  72.6415499  30.4599054  35.3292447
  73.8821631  29.8469557  36.3629132  74.4352669  30.2665010  37.0219156
  74.1191717  28.9205305  36.4052088  69.9054730  35.8356631  52.1431896
  69.8051457  36.7850987  52.0743987  69.6876272  35.5074869  51.2707966
  69.1067801  33.0841556  28.7272574  69.9686965  33.4096454  28.9868391
  69.2918146  32.2973051  28.2145640  61.1235217  41.1663895  41.0052763
  60.4298689  40.7517848  40.4922717  61.8708208  41.2084432  40.4086181
  77.2600438  31.9570082  35.8707797  76.6799107  32.6154886  35.4885849
  76.9936371  31.1347427  35.4595214  75.7104004  31.3575140  38.0729117
  76.2103783  31.4691674  37.2643436  76.3539612  31.0536193  38.7129926
  69.7686000  39.2653769  50.9596958  69.2853082  40.0654129  51.1660847
  69.8546939  39.2761714  50.0064402  63.0371960  41.0982149  38.8818777
  63.0142648  41.1969836  37.9300661  63.3472596  41.9447300  39.2035944
  65.6959338  43.1558304  42.9965392  66.6502591  43.1242246  42.9295323
  65.4971861  42.6948928  43.8115618  66.2858720  41.7259420  45.5636189
  67.1051609  42.2203499  45.5871027  66.5595527  40.8091388  45.5353757
  76.0425316  34.1170172  34.9264145  75.1551171  34.4019823  34.7084340
  76.4579305  33.9563936  34.0791422  64.0509566  48.6977924  40.0135590
  63.9164034  47.9378324  39.4473588  63.6341629  49.4218823  39.5464379
  75.1868529  43.8814847  29.0212165  75.8904379  44.0864850  29.6369821
  74.4631178  44.4491609  29.2861249  76.0166340  39.6324708  35.1414435
  75.9601541  40.0893260  34.3022068  76.5694682  38.8715393  34.9637278
  67.2078692  49.5947241  40.2254032  67.0911076  50.5392673  40.1232723
  66.3871138  49.2920802  40.6139832  77.0955227  44.3197376  31.0710625
  77.9300831  43.8878575  30.8888100  76.9339570  44.1479390  31.9987520
  76.7501119  40.8229490  32.4366964  76.6949923  40.6573761  31.4955408
  76.1247174  41.5305522  32.5929154  61.5393634  36.0597554  46.2628387
  62.1852498  35.5496508  46.7515612  61.3310785  36.7966236  46.8371812
  74.0647026  43.1278401  51.7620527  74.9338186  43.3019054  51.4007162
  73.5853778  43.9472818  51.6396256  70.0597244  30.3237599  32.0152283
  70.0475914  31.2679439  32.1720554  70.9520666  30.1407744  31.7211744
  68.2333206  50.2475502  43.4409961  69.1360453  50.2799113  43.7576456
  68.0070576  49.3175953  43.4556297  69.9886808  49.0006489  40.1020039
  69.0382439  49.0008351  39.9884412  70.2919295  48.2539224  39.5856074
  73.8749364  26.9180375  36.2698220  73.1081760  26.3638862  36.4154902
  74.2860069  26.9902244  37.1312371  65.8791125  33.2065171  50.3603401
  66.7422586  32.8501976  50.5706725  65.3056536  32.8679066  51.0478805
  78.3916024  56.6429932  37.0924217  77.8280889  56.5519869  36.3240505
  78.2768419  55.8229836  37.5726710  75.9380456  58.1381124  39.9308438
  76.7301748  57.7971948  39.5154737  76.1777106  58.2476099  40.8510591
  78.1458619  54.8641631  39.0379214  77.2209115  54.7317845  39.2456906
  78.3943032  55.6435851  39.5349157  75.5067430  54.5074905  39.8723003
  75.6359811  54.7609384  40.7862415  74.8264881  55.1002613  39.5527658
  74.4536855  51.9796918  39.9174045  73.6635909  52.2354446  39.4414156
  74.9448103  52.7945256  40.0226086  76.4051601  52.3441497  36.8757522
  75.6082764  52.4560191  37.3941018  76.1777193  52.6828149  36.0098413
  72.7374558  52.2327408  42.3489036  72.9882597  53.1174418  42.6146612
  73.2734107  52.0532010  41.5764128  75.4034683  58.0529746  35.2646942
  75.9159204  58.8472996  35.4152507  76.0557396  57.3556036  35.1980544
  77.2129568  61.1695502  37.3469695  77.3896196  62.0913467  37.1590679
  78.0086402  60.8553921  37.7764075  76.4981925  53.2160134  47.2231859
  76.3835440  52.3145391  47.5238957  75.6426442  53.4623831  46.8716675
  73.3683600  56.3818400  36.0406513  74.2058822  56.7915409  35.8240220
  73.5461868  55.4417842  36.0106707  73.3909771  53.7209115  36.7117246
  73.1934171  53.1278476  35.9868313  72.8356435  53.4161326  37.4293185
  75.8855997  53.2473149  34.3958198  74.9553585  53.1857605  34.6128160
  75.9813469  52.7249102  33.5994840  75.8041546  49.7727962  36.9836440
  76.0648363  50.6873295  36.8745600  76.6258718  49.3052405  37.1333053
  77.2766471  51.1865719  44.1535264  77.9489525  50.9783082  43.5047913
  76.4496258  50.9887805  43.7140497  69.9509602  55.4059311  38.8784992
  70.6380642  55.0921041  38.2906007  69.7957731  56.3100675  38.6052243
  74.7544325  50.2949507  43.3070015  74.6702513  49.6875177  42.5720425
  73.9327031  50.7858526  43.3079512  74.9359924  60.9154304  42.4298016
  75.5213361  60.1697992  42.5625920  74.7384762  61.2258261  43.3134679
  77.7898579  63.9505551  37.4460458  77.1208954  64.4351679  36.9624498
  77.6511449  64.1974772  38.3603836  69.5277579  53.4859904  41.1502459
  69.5661678  52.9523495  41.9439577  69.0217871  52.9595110  40.5313436
  76.9068341  48.3324445  44.6465001  76.9709667  49.1939275  44.2342399
  76.8435461  47.7198446  43.9137359  76.3820613  50.4047577  48.2938035
  77.0092652  50.0224654  48.9075560  75.5248532  50.1861779  48.6593728
  73.1586156  52.2124006  34.2256390  73.4539597  51.3034685  34.1723444
  72.2574192  52.1911746  33.9037392  76.6880403  50.2880003  40.2083939
  75.9666989  50.9015971  40.0691412  77.4773659  50.8237768  40.1300585
  74.8873998  49.8938104  34.3495715  74.5586704  49.0135483  34.1670821
  75.2413368  49.8385773  35.2372104  78.0015821  50.1811074  34.7171193
  78.3411893  50.7096995  33.9949801  78.4487941  50.5191480  35.4929759
  73.3459974  54.8821902  43.3681224  72.8013443  55.6581710  43.5001498
  74.2239324  55.2292706  43.2100345  74.1325996  54.0091798  46.2611381
  73.3907732  54.1574433  46.8476011  73.8118741  54.2700064  45.3978130
  74.5782610  61.8957227  38.2921775  75.4040630  61.5960999  37.9120419
  74.2276662  61.1264849  38.7411564  72.7791215  59.8143553  39.2510709
  71.9423123  59.3865728  39.0694710  72.7514860  60.0075997  40.1881500
  76.8630283  55.8252796  34.8438978  76.6176325  54.9215126  35.0419188
  77.0326198  55.8269947  33.9018456  76.1325931  51.5581154  32.3425140
  75.4395176  51.6325509  31.6865176  75.8877682  50.7941497  32.8646657
  72.0940712  52.8752901  39.0359641  71.7743496  52.0218210  38.7434015
  71.5474140  53.0901480  39.7917608  75.8720619  55.5915342  42.7529147
  76.0906629  56.5232450  42.7717181  76.2846393  55.2323317  43.5383951
  71.9628972  56.4955813  41.0052763  71.2692443  56.0809766  40.4922717
  72.7101963  56.5376349  40.4086181  73.8765714  56.4274067  38.8818777
  73.8536402  56.5261754  37.9300661  74.1866351  57.2739217  39.2035944
  76.5353092  58.4850222  42.9965392  77.4896346  58.4534164  42.9295323
  76.3365616  58.0240845  43.8115618  77.1252474  57.0551338  45.5636189
  77.9445363  57.5495416  45.5871027  77.3989282  56.1383306  45.5353757
  74.8903321  64.0269841  40.0135590  74.7557789  63.2670242  39.4473588
  74.4735383  64.7510741  39.5464379  78.0472447  64.9239158  40.2254032
  77.9304831  65.8684591  40.1232723  77.2264893  64.6212720  40.6139832
  72.3787388  51.3889472  46.2628387  73.0246252  50.8788426  46.7515612
  72.1704540  52.1258153  46.8371812  76.7184879  48.5357089  50.3603401
  77.5816341  48.1793894  50.5706725  76.1450290  48.1970984  51.0478805
  54.2592948   4.4859411  26.6553745  55.0514240   4.1450235  26.2400044
  54.4989598   4.5954386  27.5755898  62.2928075   6.6579187  19.1283989
  61.6416055   7.2433267  18.7418003  63.0872438   7.1885382  19.1879026
  58.0568745   5.0744706  32.7338023  57.7658611   5.9790337  32.6184689
  58.6925729   5.1161234  33.4482092  57.9979409  11.5250442  22.6958784
  57.9203439  12.4758267  22.7747265  57.3941053  11.1796315  23.3533710
  60.2717778   6.8832595  21.4164324  60.1363453   7.7284131  21.8449172
  60.8127591   7.0851873  20.6530258  53.7247176   4.4008033  21.9892249
  54.2371696   5.1951283  22.1397814  54.3769889   3.7034324  21.9225850
  55.5342060   7.5173789  24.0715002  55.7108689   8.4391754  23.8835986
  56.3298894   7.2032209  24.5009382  61.8986255   7.5056162  35.5464666
  61.4550109   6.7192540  35.2285570  62.5603468   7.6935312  34.8808557
  56.6573376   9.0351963  30.0725344  57.2080801   8.9069027  29.3002338
  55.8184852   9.3346852  29.7220237  63.9967493   7.7858962  33.5746067
  63.9785968   8.6067843  33.0826336  64.9187413   7.6613037  33.7996208
  62.8713939  10.9566801  17.8520047  62.1975637  11.2598498  18.4605004
  63.2579761  11.7595881  17.5025504  64.8186300   7.7964975  24.1588336
  65.1109274   8.3570032  23.4400702  65.3284920   8.0893536  24.9141495
  59.7819925   8.5745326  25.2481789  59.7396104   8.8006172  24.3190322
  60.6982624   8.3408700  25.3967591  62.7180570   7.8326450  29.3956120
  62.7717593   8.4017387  30.1633836  61.8495352   8.0028335  29.0310157
  60.4757002   6.0237377  28.7241589  60.3368088   5.6556161  29.5967527
  59.6871598   6.5385016  28.5525547  61.0705154  11.1246473  20.0667126
  61.2456910  10.6534517  20.8812749  60.3837942  11.7512240  20.2948387
  55.6366239  14.2735836  26.8406986  55.8762837  14.9054360  27.5186005
  54.7935436  13.9223876  27.1272345  60.1494101  10.0814959  29.2448490
  60.0764272  10.8869930  29.7567795  59.7071494  10.2806924  28.4196511
  59.9383881   9.3186729  22.7551312  59.1551403   9.8608409  22.8489536
  60.6376626   9.8360708  23.1545553  62.6092785   9.9801793  31.4006649
  63.3220757  10.6149257  31.3282550  62.1182813  10.0765659  30.5846650
  57.6604698   7.7296236  32.2212219  58.3614158   8.3632719  32.3741614
  57.1899813   8.0710968  31.4607859  62.4213158  10.3200537  24.1492940
  62.6035552   9.5022193  24.6120692  63.2446144  10.5368229  23.7117830
  62.7555323   9.2468722  21.4107989  63.2843090   8.7361176  20.7978151
  63.0183543   8.9311252  22.2753522  53.2572416   7.2632591  29.1543322
  53.8425853   6.5176279  29.2871226  53.0597255   7.5736548  30.0379986
  56.1111071  10.2983839  24.1705765  55.4421447  10.7829966  23.6869805
  55.9723941  10.5453059  25.0849143  60.2516340  12.3327582  30.7688423
  60.8034648  12.4959204  31.5337508  60.5922533  12.9232020  30.0968448
  63.3884727  10.2809558  27.7552105  63.2635867   9.4799297  27.2463051
  64.0463818  10.7755751  27.2666075  62.4566069   7.8771294  25.5836007
  62.3091031   6.9488001  25.7643577  63.2819562   7.8991385  25.0993083
  66.0600191   8.6999853  26.6700880  66.9846738   8.4942714  26.5325331
  65.8915494   8.4516254  27.5790222  65.8495507   9.2185520  22.0262972
  66.0232384   8.6531943  21.2736824  66.3424398  10.0186415  21.8442462
  60.3982151   9.8986064  32.7837077  60.7069278   9.6535210  33.6559777
  61.1957633  10.1032702  32.2955948  60.4202763  12.0523973  25.0142454
  59.9807754  11.5600352  25.7075311  61.1710880  11.5096941  24.7734529
  52.8995102   8.2435514  25.0167082  53.7253122   7.9439286  24.6365725
  52.5489154   7.4743137  25.4656871  57.8676635   7.5961982  27.0864756
  57.2456645   6.9332687  26.7866983  58.5381502   7.6223114  26.4038403
  51.1003707   6.1621841  25.9756015  50.2635616   5.7344015  25.7940017
  51.0727353   6.3554284  26.9126807  57.4290142   6.1465906  20.5623216
  57.5778263   6.8301370  19.9089889  58.2356586   6.1270996  21.0772672
  60.9285548   8.6414036  18.0334963  60.3559515   9.2604223  17.5805435
  61.5018342   9.1913398  18.5674885  64.1482808   8.9251186  19.1643546
  65.0813481   8.8596748  19.3676421  64.0606020   9.7607453  18.7058078
  50.2841464   2.8434100  27.7298069  49.5904935   2.4288053  27.2168024
  51.0314455   2.8854637  27.1331488  52.1978206   2.7752354  25.6064084
  52.1748895   2.8740041  24.6545967  52.5078843   3.6217505  25.9281250
  54.8565584   4.8328509  29.7210698  55.8108838   4.8012451  29.6540630
  54.6578108   4.3719133  30.5360924  53.2115813  10.3748128  26.7380896
  53.0770281   9.6148529  26.1718894  52.7947875  11.0989028  26.2709685
  56.3684939  11.2717445  26.9499339  56.2517323  12.2162878  26.8478029
  55.5477385  10.9691007  27.3385138  57.3939453  11.9245707  30.1655267
  58.2966700  11.9569318  30.4821762  57.1676823  10.9946158  30.1801603
  59.1493055  10.6776694  26.8265346  58.1988686  10.6778556  26.7129718
  59.4525541   9.9309428  26.3101381  74.8845749  16.5137232  27.8911108
  75.5224159  16.3943980  27.1874448  74.7666592  17.4618076  27.9499061
  71.6935455  16.4664660  27.8272633  71.3553966  16.3505725  26.9393168
  72.5625223  16.0655826  27.8073639  67.5522271  18.3200137  23.8169524
  66.9887136  18.2290074  23.0485812  67.4374666  17.5000041  24.2972017
  72.1755238  17.6199512  33.7858839  72.1643879  17.2252310  32.9139342
  72.3375877  16.8865585  34.3792610  65.0986703  19.8151328  26.6553745
  65.8907994  19.4742153  26.2400044  65.3383353  19.9246303  27.5755898
  73.1321829  21.9871105  19.1283989  72.4809809  22.5725185  18.7418003
  73.9266192  22.5177299  19.1879026  67.0577456  19.0760242  19.5271123
  67.8308332  18.5289229  19.3883999  67.4102855  19.9404491  19.7385585
  68.8962499  20.4036624  32.7338023  68.6052365  21.3082255  32.6184689
  69.5319483  20.4453152  33.4482092  69.8218706  17.7813472  29.3239382
  70.4182278  17.5569495  28.6096345  69.8793677  17.0398218  29.9264830
  69.3943734  15.2352908  17.1589573  69.6469255  14.7134429  16.3973036
  68.4568293  15.0719053  17.2616257  74.4387017  14.2388686  24.9664316
  75.2250106  13.8208109  24.6154733  74.7025721  15.1434778  25.1345965
  74.6097094  19.6761536  19.6652973  73.9742927  19.7496163  20.3773878
  74.2794501  20.2655135  18.9872053  69.1140023  17.1381014  19.3613948
  68.9976281  16.4625917  20.0295033  69.2242283  16.6513388  18.5446101
  71.4571564  16.5991161  23.0660637  71.0929771  16.0721782  23.7773559
  72.3138680  16.2089630  22.8927123  73.8552384  20.0898039  29.7287816
  73.5553107  20.9923078  29.6203624  73.5103444  19.8230223  30.5808969
  67.3064866  16.5411836  25.7624521  66.3815362  16.4088050  25.9702213
  67.5549279  17.3206056  26.2594463  77.2549528  12.6080580  27.4085254
  76.3466405  12.5395988  27.1144015  77.2037124  13.0852525  28.2367079
  71.0766272  14.0838718  19.0468653  70.9565897  14.5295769  19.8854133
  70.3818860  14.4324036  18.4882191  64.6673677  16.1845110  26.5968310
  64.7966058  16.4379589  27.5107722  63.9871128  16.7772818  26.2772965
  68.8373164  26.8542360  22.6958784  68.7597194  27.8050185  22.7747265
  68.2334807  26.5088232  23.3533710  71.3290394  14.0270225  35.3520151
  70.5523728  14.5864145  35.3423016  71.9680957  14.5127008  35.8735021
  69.5836766  16.8355679  34.9138118  70.3251450  17.3740723  34.6372942
  68.8773751  17.4621967  35.0709670  75.0592106  18.9784819  33.5110279
  75.4675462  18.5367230  32.7664912  74.3369367  18.4037447  33.7644472
  71.4123176  13.9157426  30.8843836  72.2584371  14.3396839  31.0278485
  71.3521813  13.2591050  31.5782399  75.3820920  19.5386010  27.2662568
  74.7529783  19.7031724  26.5638636  74.9946582  19.9527619  28.0373532
  74.5622621  11.5761794  32.5425010  74.3183553  12.3303855  32.0059286
  74.8382552  11.9547142  33.3772257  76.5161084  18.1200407  31.2202276
  76.7277979  18.7632166  30.5436657  76.4690832  17.2862723  30.7524206
  74.1187313  10.7318227  28.1238848  73.2571792  11.0299481  28.4155585
  74.1449747  10.9488626  27.1919880  70.9348882  19.2760418  24.5312653
  71.3987228  19.5548121  23.7417276  70.6705680  18.3743862  24.3485744
  67.8272963  18.8231899  27.4692417  68.3974320  19.2519168  26.8309901
  68.4181075  18.5414484  28.1676602  69.8717768  15.3983570  21.3402219
  70.5741812  15.8504614  21.8076145  69.5398397  14.7567389  21.9682112
  68.3198130  13.9895327  35.7153428  67.6896790  14.6711608  35.9488825
  68.2134218  13.8778408  34.7706566  63.6143102  13.6567123  26.6419352
  62.8242156  13.9124651  26.1659463  64.1054350  14.4715461  26.7471393
  77.6306912  20.9972362  29.3924633  78.4524355  20.5952549  29.1107315
  77.6269315  20.8940596  30.3440749  65.5657848  14.0211702  23.6002829
  64.7689011  14.1330396  24.1186324  65.3383440  14.3598354  22.7343719
  71.3963515  20.5456405  31.5485343  71.4607948  21.0076813  32.3843515
  70.6874439  19.9153770  31.6767653  61.8980805  13.9097613  29.0734343
  62.1488844  14.7944623  29.3391919  62.4340354  13.7302215  28.3009435
  71.1111533  22.2124513  21.4164324  70.9757208  23.0576048  21.8449172
  71.6521345  22.4143790  20.6530258  64.5640930  19.7299951  21.9892249
  65.0765451  20.5243201  22.1397814  65.2163643  19.0326241  21.9225850
  66.3735815  22.8465707  24.0715002  66.5502443  23.7683672  23.8835986
  67.1692648  22.5324126  24.5009382  65.6588171  14.8930339  33.9477165
  65.5441687  13.9915596  34.2484264  64.8032689  15.1394036  33.5961982
  72.7380009  22.8348079  35.5464666  72.2943863  22.0484458  35.2285570
  73.3997223  23.0227230  34.8808557  67.4967130  24.3643881  30.0725344
  68.0474556  24.2360944  29.3002338  66.6578606  24.6638770  29.7220237
  74.8361247  23.1150879  33.5746067  74.8179723  23.9359760  33.0826336
  75.7581167  22.9904954  33.7996208  71.2934301  20.6295009  34.4169575
  71.8262638  19.8683297  34.1868883  70.7648383  20.3368660  35.1593730
  62.5289847  18.0588605  22.7651819  63.3665069  18.4685613  22.5485527
  62.7068115  17.1188047  22.7352013  74.4254279  15.7263686  18.4535652
  73.9100903  16.4968290  18.6924040  74.1531588  15.0528822  19.0768714
  72.0101390  10.5713387  23.5120891  71.1542986  10.1820237  23.3326529
  72.4228342  10.6505347  22.6520676  74.2140582  13.5990778  20.2795433
  73.9090718  13.9136927  21.1305577  75.1671024  13.6772198  20.3222766
  72.6587014  19.7581001  21.9288387  72.1308376  19.0233761  21.6161625
  72.1574517  20.5355678  21.6828356  77.6379860  17.9530022  27.0455434
  76.9803535  18.6429283  27.1335562  78.4420259  18.3426454  27.3889420
  67.3905742  10.4200667  24.2894999  67.9649494  10.1975849  23.5568192
  67.9776724  10.4889362  25.0423600  76.4485319  16.3074394  25.0959376
  76.9617201  16.9404386  25.5981085  77.0986543  15.7075590  24.7302736
  67.7175329  12.4505128  18.3090884  66.8812641  12.7879815  18.6300159
  67.5780098  12.3154108  17.3718021  73.7107693  26.2858719  17.8520047
  73.0369392  26.5890415  18.4605004  74.0973515  27.0887799  17.5025504
  72.9266150  13.7823850  27.3417716  72.0088711  14.0038797  27.1839404
  73.3426293  13.8570160  26.4829423  73.7101198  15.1815266  22.4720396
  74.4573017  15.6936663  22.1627518  73.9792787  14.8599318  23.3324790
  71.9827848  17.6773806  19.4547351  71.0739067  17.3932839  19.5519820
  72.0122932  18.0972885  18.5950657  77.2147115  21.2880396  23.2238518
  76.7609442  20.4471306  23.2803709  76.5841082  21.9241794  23.5613298
  76.1580035  12.2172382  24.4539186  75.4202792  11.7049768  24.7849428
  76.4106808  11.7772763  23.6422462  75.6580054  23.1256892  24.1588336
  75.9503029  23.6861950  23.4400702  76.1678675  23.4185453  24.9141495
  62.5516018  15.3979320  23.4362553  62.3540418  14.8048681  22.7113619
  61.9962682  15.0931531  24.1538492  70.5312742  15.2902427  25.5557146
  70.5861352  14.3376263  25.4799623  69.7203944  15.4461866  26.0398444
  71.6803936  19.2182550  16.7935429  71.2423365  18.5018409  16.3341067
  72.4214376  19.4458665  16.2320521  68.4705102  13.9079487  23.3147525
  67.6572967  14.2073657  23.7212717  68.9664096  13.5135175  24.0322007
  70.6213680  23.9037244  25.2481789  70.5789858  24.1298090  24.3190322
  71.5376378  23.6700618  25.3967591  74.0679313  14.3721311  32.1462419
  74.4228701  14.5992784  33.0056884  74.7151445  14.7039688  31.5239674
  67.9619176  11.4797842  28.9308760  68.6018556  11.3386601  28.2331723
  67.1296707  11.1932356  28.5547362  68.7379480  20.7800273  25.0443752
  69.5320079  20.2850593  24.8426327  68.0271173  20.2518136  24.6811458
  73.5574325  23.1618368  29.3956120  73.6111347  23.7309304  30.1633836
  72.6889106  23.3320253  29.0310157  65.0462244  14.9243354  21.1203505
  64.1159832  14.8627810  21.3373467  65.1419716  14.4019307  20.3240146
  64.9647793  11.4498167  23.7081747  65.2254610  12.3643500  23.5990907
  65.7864965  10.9822610  23.8578359  66.4372718  12.8635924  30.8780571
  67.1095772  12.6553286  30.2293220  65.6102505  12.6658010  30.4385803
  75.7477088  19.7546717  35.9696785  75.5962595  19.5257269  35.0526869
  75.7381768  20.7117319  35.9828130  72.5162425  17.3278630  30.9543052
  73.4454485  17.4789790  30.7812019  72.0953455  17.4162651  30.0991698
  71.3150756  21.3529295  28.7241589  71.1761842  20.9848079  29.5967527
  70.5265353  21.8676934  28.5525547  71.9098908  26.4538391  20.0667126
  72.0850664  25.9826434  20.8812749  71.2231696  27.0804157  20.2948387
  72.8655972  20.7310897  26.1130427  72.5305804  20.6911667  27.0088077
  72.3659917  20.0655613  25.6400837  66.8400215  16.1378527  31.6383008
  66.7020013  15.4058766  32.2394547  67.7505139  16.0487427  31.3567196
  69.4682516  15.8498487  31.1266688  70.1782135  15.2091679  31.0853306
  69.4251824  16.1011381  32.0492869  77.4569295  22.7865840  34.0473267
  77.3981841  22.1025060  33.3803850  77.8588813  23.5284830  33.5953893
  68.1811450  12.8363705  32.9462327  67.6448807  12.3854443  33.5983924
  67.5928159  12.9709613  32.2032792  66.4759994  29.6027754  26.8406986
  66.7156592  30.2346278  27.5186005  65.6329190  29.2515794  27.1272345
  77.4586702  20.7505424  32.2787247  76.5713481  20.4131346  32.4013646
  78.0285253  20.0188455  32.5156012  59.1115849  17.0829516  25.6030298
  59.7986889  16.7691246  25.0151313  58.9563978  17.9870880  25.3297550
  63.9150571  11.9719712  30.0315322  63.8308760  11.3645382  29.2965732
  63.0933278  12.4628731  30.0324818  70.9887855  25.4106876  29.2448490
  70.9158027  26.2161848  29.7567795  70.5465249  25.6098842  28.4196511
  70.7777635  24.6478646  22.7551312  69.9945157  25.1900326  22.8489536
  71.4770380  25.1652626  23.1545553  73.4486539  25.3093710  31.4006649
  74.1614511  25.9441175  31.3282550  72.9576568  25.4057576  30.5846650
  75.1704066  19.2144963  22.9723940  74.2360345  19.3346425  22.8028645
  75.3480734  18.3117430  22.7083950  70.6709254  12.5990659  25.1257202
  70.3007041  12.0461699  25.8138107  71.1668346  11.9948792  24.5732202
  68.4998453  23.0588154  32.2212219  69.2007912  23.6924637  32.3741614
  68.0293568  23.4002885  31.4607859  76.6252848  21.4006104  20.5060127
  76.9012692  21.2862698  21.4154001  75.7557347  21.0023588  20.4672300
  76.2999739  15.6132761  30.0464770  75.6471189  15.8608669  29.3917223
  76.6780118  14.7996899  29.7127247  73.2606912  25.6492454  24.1492940
  73.4429307  24.8314110  24.6120692  74.0839898  25.8660147  23.7117830
  73.5949078  24.5760639  21.4107989  74.1236844  24.0653094  20.7978151
  73.8577297  24.2603170  22.2753522  72.3487312  16.3552572  36.5330807
  71.6727949  16.2546702  37.2033182  73.1714945  16.1991786  36.9966804
  64.0966171  22.5924509  29.1543322  64.6819607  21.8468197  29.2871226
  63.8991009  22.9028466  30.0379986  66.9504826  25.6275756  24.1705765
  66.2815201  26.1121884  23.6869805  66.8117696  25.8744977  25.0849143
  58.6883825  15.1630109  27.8747765  58.7267925  14.6293700  28.6684883
  58.1824118  14.6365315  27.2558742  71.0910094  27.6619500  30.7688423
  71.6428402  27.8251121  31.5337508  71.4316288  28.2523938  30.0968448
  66.0674588  10.0094650  31.3710308  66.1315914  10.8709480  30.9587705
  66.0041708   9.3968651  30.6382666  65.5426860  12.0817782  35.0183342
  66.1698899  11.6994859  35.6320866  64.6854779  11.8631984  35.3839034
  75.9420969  22.4880757  36.6237077  76.4860873  23.1010715  36.1292032
  75.3607814  23.0460336  37.1404090  62.3192403  13.8894211  20.9501697
  62.6145844  12.9804890  20.8968750  61.4180439  13.8681951  20.6282699
  74.2278482  25.6101475  27.7552105  74.1029621  24.8091215  27.2463051
  74.8857573  26.1047669  27.2666075  65.8486650  11.9650208  26.9329245
  65.1273236  12.5786175  26.7936719  66.6379906  12.5007973  26.8545891
  76.2913390  23.4110495  29.3831655  75.3443726  23.2915846  29.3109982
  76.6396163  22.5232993  29.4657917  68.6512963   9.3004634  33.2069897
  69.1747365   9.5466931  33.9696206  68.4325297  10.1324669  32.7873034
  64.0480245  11.5708309  21.0741022  63.7192951  10.6905688  20.8916128
  64.4019615  11.5155978  21.9617411  73.2959823  23.2063212  25.5836007
  73.1484786  22.2779919  25.7643577  74.1213317  23.2283302  25.0993083
  67.1622068  11.8581279  21.4416500  67.5018140  12.3867200  20.7195108
  67.6094188  12.1961685  22.2175066  76.8993945  24.0291770  26.6700880
  77.8240493  23.8234632  26.5325331  76.7309249  23.7808171  27.5790222
  69.8565508  10.2418329  30.8919568  69.5162329   9.4426142  31.2940247
  69.1504515  10.5420040  30.3196401  69.1490215  10.3555900  19.6409792
  69.8698577  10.7337153  19.1373509  68.5255519  11.0744777  19.7444770
  68.0320559  14.0186762  27.1538869  67.8865140  14.3327065  28.0463151
  67.5545763  14.6371663  26.6009768  69.8916942  11.0089310  27.2019759
  69.8778511  10.1130404  26.8652057  70.6089370  11.0159974  27.8358045
  71.7443073  11.4426651  29.2472886  71.4860850  12.3643721  29.2457217
  71.2128113  11.0457085  29.9373350  76.6889261  24.5477438  22.0262972
  76.8626139  23.9823860  21.2736824  77.1818153  25.3478333  21.8442462
  62.5066221  16.5592107  30.0926530  61.9619689  17.3351915  30.2246805
  63.3845571  16.9062911  29.9345652  69.2953838   9.8903691  22.4707329
  69.4169749   8.9620337  22.6698216  69.0055880   9.9042377  21.5585644
  77.6764434  23.8644202  19.1259870  78.3715339  24.4850895  19.3447185
  78.0187584  23.0139553  19.4012248  63.2932243  15.6862003  32.9856687
  62.5513979  15.8344638  33.5721318  62.9724987  15.9470269  32.1223437
  71.2375906  25.2277981  32.7837077  71.5463032  24.9827128  33.6559777
  72.0351388  25.4324620  32.2955948  71.2596518  27.3815891  25.0142454
  70.8201508  26.8892270  25.7075311  72.0104635  26.8388859  24.7734529
  63.7388857  23.5727432  25.0167082  64.5646877  23.2731204  24.6365725
  63.3882909  22.8035054  25.4656871  68.7070390  22.9253900  27.0864756
  68.0850399  22.2624605  26.7866983  69.3775257  22.9515032  26.4038403
  61.9397462  21.4913758  25.9756015  61.1029370  21.0635933  25.7940017
  61.9121107  21.6846202  26.9126807  68.7794917  11.4035688  36.6797262
  68.8283073  12.2797811  36.2975031  69.3217432  10.8613081  36.1068905
  68.2683897  21.4757823  20.5623216  68.4172017  22.1593288  19.9089889
  69.0750340  21.4562913  21.0772672  76.6751401  14.7800206  34.5890434
  77.5761263  14.6406671  34.2974432  76.7499375  14.9454661  35.5288611
  71.0094206  12.1567060  33.4343620  70.1397515  12.4500626  33.1626209
  71.2453686  12.7407505  34.1550884  66.0236530  17.5023001  21.5684285
  65.7782572  16.5985331  21.7664495  66.1932444  17.5040151  20.6263763
  65.2932177  13.2351359  19.0670446  64.6001422  13.3095714  18.4110482
  65.0483929  12.4711702  19.5891963  71.7679302  23.9705954  18.0334963
  71.1953269  24.5896141  17.5805435  72.3412096  24.5205315  18.5674885
  74.9876562  24.2543104  19.1643546  75.9207235  24.1888666  19.3676421
  74.8999775  25.0899371  18.7058078  72.0364793  19.3584513  36.8351673
  72.9567803  19.5363112  37.0291719  72.0014376  18.4140558  36.6831372
  61.2546958  14.5523106  25.7604948  60.9349743  13.6988415  25.4679322
  60.7080387  14.7671684  26.5162915  65.0326866  17.2685547  29.4774454
  65.2512876  18.2002655  29.4962488  65.4452640  16.9093522  30.2629258
  69.9054731  12.8418753  38.8677203  69.8051458  13.7913110  38.7989294
  69.6876273  12.5136992  37.9953273  61.1235218  18.1726018  27.7298069
  60.4298690  17.7579971  27.2168024  61.8708209  18.2146554  27.1331488
  69.7686001  16.2715892  37.6842265  69.2853083  17.0716252  37.8906154
  69.8546940  16.2823837  36.7309709  63.0371961  18.1044272  25.6064084
  63.0142649  18.2031959  24.6545967  63.3472597  18.9509422  25.9281250
  65.6959339  20.1620427  29.7210698  66.6502592  20.1304369  29.6540630
  65.4971862  19.7011050  30.5360924  66.2858721  18.7321543  32.2881496
  67.1051610  19.2265621  32.3116333  66.5595529  17.8153511  32.2599064
  64.0509568  25.7040046  26.7380896  63.9164036  24.9440447  26.1718894
  63.6341630  26.4280946  26.2709685  76.0166341  16.6386831  21.8659742
  75.9601542  17.0955382  21.0267374  76.5694683  15.8777516  21.6882585
  67.2078693  26.6009363  26.9499339  67.0911078  27.5454796  26.8478029
  66.3871140  26.2982925  27.3385138  61.5393635  13.0659677  32.9873693
  62.1852499  12.5558631  33.4760918  61.3310786  13.8028358  33.5617118
  74.0647027  20.1340524  38.4865834  74.9338187  20.3081176  38.1252469
  73.5853779  20.9534941  38.3641563  68.2333208  27.2537625  30.1655267
  69.1360454  27.2861235  30.4821762  68.0070578  26.3238076  30.1801603
  69.9886810  26.0068612  26.8265346  69.0382441  26.0070473  26.7129718
  70.2919296  25.2601346  26.3101381  65.8791126  10.2127294  37.0848707
  66.7422588   9.8564098  37.2952032  65.3056537   9.8741188  37.7724112
  78.3916025  33.6492055  23.8169524  77.8280890  33.5581991  23.0485812
  78.2768420  32.8291959  24.2972017  75.9380457  35.1443246  26.6553745
  76.7301749  34.8034071  26.2400044  76.1777107  35.2538221  27.5755898
  78.1458620  31.8703754  25.7624521  77.2209117  31.7379968  25.9702213
  78.3943033  32.6497973  26.2594463  75.5067431  31.5137028  26.5968310
  75.6359812  31.7671506  27.5107722  74.8264882  32.1064736  26.2772965
  74.4536857  28.9859040  26.6419352  73.6635911  29.2416569  26.1659463
  74.9448104  29.8007378  26.7471393  76.4051602  29.3503620  23.6002829
  75.6082765  29.4622314  24.1186324  76.1777194  29.6890272  22.7343719
  72.7374560  29.2389531  29.0734343  72.9882598  30.1236541  29.3391919
  73.2734108  29.0594132  28.3009435  75.4034685  35.0591868  21.9892249
  75.9159205  35.8535119  22.1397814  76.0557398  34.3618159  21.9225850
  77.2129569  38.1757625  24.0715002  77.3896198  39.0975589  23.8835986
  78.0086403  37.8616044  24.5009382  76.4981926  30.2222257  33.9477165
  76.3835441  29.3207514  34.2484264  75.6426444  30.4685953  33.5961982
  73.3683601  33.3880523  22.7651819  74.2058823  33.7977531  22.5485527
  73.5461869  32.4479965  22.7352013  73.3909773  30.7271238  23.4362553
  73.1934172  30.1340599  22.7113619  72.8356437  30.4223448  24.1538492
  75.8855998  30.2535272  21.1203505  74.9553586  30.1919727  21.3373467
  75.9813470  29.7311225  20.3240146  75.8041547  26.7790085  23.7081747
  76.0648365  27.6935418  23.5990907  76.6258720  26.3114527  23.8578359
  77.2766473  28.1927842  30.8780571  77.9489526  27.9845204  30.2293220
  76.4496259  27.9949928  30.4385803  77.3153748  44.9319671  26.8406986
  77.5550346  45.5638196  27.5186005  76.4722945  44.5807712  27.1272345
  69.9509604  32.4121433  25.6030298  70.6380644  32.0983163  25.0151313
  69.7957732  33.3162798  25.3297550  74.7544326  27.3011630  30.0315322
  74.6702515  26.6937299  29.2965732  73.9327032  27.7920648  30.0324818
  74.9359925  37.9216426  29.1543322  75.5213362  37.1760114  29.2871226
  74.7384764  38.2320383  30.0379986  77.7898580  40.9567674  24.1705765
  77.1208956  41.4413801  23.6869805  77.6511450  41.2036894  25.0849143
  69.5277580  30.4922027  27.8747765  69.5661679  29.9585617  28.6684883
  69.0217873  29.9657232  27.2558742  76.9068342  25.3386567  31.3710308
  76.9709669  26.2001398  30.9587705  76.8435462  24.7260569  30.6382666
  76.3820615  27.4109700  35.0183342  77.0092653  27.0286777  35.6320866
  75.5248534  27.1923902  35.3839034  73.1586157  29.2186129  20.9501697
  73.4539598  28.3096807  20.8968750  72.2574193  29.1973868  20.6282699
  76.6880404  27.2942125  26.9329245  75.9666990  27.9078093  26.7936719
  77.4773660  27.8299890  26.8545891  74.8873999  26.9000226  21.0741022
  74.5586705  26.0197605  20.8916128  75.2413370  26.8447895  21.9617411
  78.0015822  27.1873196  21.4416500  78.3411895  27.7159118  20.7195108
  78.4487943  27.5253602  22.2175066  73.3459976  31.8884024  30.0926530
  72.8013444  32.6643832  30.2246805  74.2239326  32.2354829  29.9345652
  74.1325998  31.0153921  32.9856687  73.3907734  31.1636556  33.5721318
  73.8118742  31.2762186  32.1223437  74.5782611  38.9019349  25.0167082
  75.4040631  38.6023121  24.6365725  74.2276663  38.1326972  25.4656871
  72.7791216  36.8205676  25.9756015  71.9423125  36.3927850  25.7940017
  72.7514862  37.0138119  26.9126807  76.8630284  32.8314919  21.5684285
  76.6176326  31.9277249  21.7664495  77.0326199  32.8332069  20.6263763
  76.1325932  28.5643276  19.0670446  75.4395177  28.6387631  18.4110482
  75.8877684  27.8003620  19.5891963  72.0940713  29.8815024  25.7604948
  71.7743497  29.0280332  25.4679322  71.5474141  30.0963602  26.5162915
  75.8720620  32.5977465  29.4774454  76.0906630  33.5294573  29.4962488
  76.2846394  32.2385439  30.2629258  71.9628973  33.5017936  27.7298069
  71.2692444  33.0871888  27.2168024  72.7101964  33.5438472  27.1331488
  73.8765715  33.4336189  25.6064084  73.8536404  33.5323877  24.6545967
  74.1866352  34.2801340  25.9281250  76.5353093  35.4912344  29.7210698
  77.4896347  35.4596287  29.6540630  76.3365617  35.0302968  30.5360924
  77.1252475  34.0613460  32.2881496  77.9445364  34.5557539  32.3116333
  77.3989283  33.1445429  32.2599064  74.8903322  41.0331964  26.7380896
  74.7557790  40.2732365  26.1718894  74.4735384  41.7572864  26.2709685
  78.0472448  41.9301281  26.9499339  77.9304832  42.8746713  26.8478029
  77.2264894  41.6274842  27.3385138  72.3787390  28.3951594  32.9873693
  73.0246253  27.8850548  33.4760918  72.1704541  29.1320276  33.5617118
  76.7184881  25.5419211  37.0848707  77.5816342  25.1856016  37.2952032
  76.1450291  25.2033106  37.7724112   0.8995053  22.2206153  59.7013064
   1.8112909  22.4533539  59.5260761   0.3904700  22.8043197  59.1388142
   3.3853867  28.1386409  64.4471009   2.7004905  28.5185310  63.8968042
   3.4697716  28.7481736  65.1802957   9.8456620  25.0057072  65.5673681
   9.0920328  24.4364470  65.4117686   9.9804161  24.9719736  66.5144316
   3.5232268  26.1442002  60.2152903   2.7461711  25.8053161  59.7708065
   4.2023749  26.1494625  59.5407868   1.3390830  28.9526357  63.0502595
   0.8853157  28.1117267  63.1067786   0.7084797  29.5887756  63.3877375
   3.9220765  25.1585709  62.6775825   3.7838664  25.3487304  61.7497014
   3.5656984  25.9205091  63.1343876   0.8132976  32.2123399  61.8527049
   0.9869854  31.6469822  61.1000901   1.3061867  33.0124294  61.6706539
   6.6672367  24.9759822  63.4717348   7.1103513  24.2267147  63.0736472
   5.7898878  24.9669959  63.0891080   1.8008149  31.5290164  58.9523947
   2.4959053  32.1496856  59.1711262   2.1431299  30.6785515  59.2276325
   3.6999572  28.9789869  60.4811278   4.2250896  29.3177142  59.7560598
   3.6121924  28.0436884  60.2974412   6.2105232  26.4465060  65.8639796
   7.0452123  26.8854865  66.0277356   6.3464361  25.9703714  65.0448042
   1.7408294  31.2354936  55.9511570   1.6621925  30.9014799  56.8447328
   2.5617960  31.7276704  55.9503043   1.2198943  28.9905460  57.6220009
   2.0544547  28.5586659  57.4397483   1.0583286  28.8187474  58.5496903
   9.8483218  39.5075111  67.7175185  10.4861628  39.3881859  67.0138526
   9.7304061  40.4555955  67.7763138   6.6572924  39.4602540  67.6536710
   6.3191436  39.3443604  66.7657245   7.5262692  39.0593705  67.6337716
   2.5159740  41.3138016  63.6433601   1.9524605  41.2227953  62.8749889
   2.4012135  40.4937920  64.1236094   7.1392707  40.6137391  73.6122916
   7.1281348  40.2190190  72.7403419   7.3013347  39.8803464  74.2056687
   8.0959299  44.9808984  58.9548066   7.4447278  45.5663064  58.5682080
   8.8903661  45.5115179  59.0143103   2.0214926  42.0698121  59.3535200
   2.7945802  41.5227108  59.2148076   2.3740325  42.9342370  59.5649662
   4.7856175  40.7751352  69.1503459   5.3819747  40.5507374  68.4360422
   4.8431147  40.0336097  69.7528907   4.3581204  38.2290787  56.9853650
   4.6106724  37.7072308  56.2237113   3.4205763  38.0656932  57.0880334
   9.4024486  37.2326565  64.7928393  10.1887576  36.8145989  64.4418810
   9.6663191  38.1372658  64.9610042   9.5734564  42.6699416  59.4917050
   8.9380397  42.7434042  60.2037955   9.2431970  43.2593014  58.8136130
  14.8032914  37.1701799  65.6961372  15.5358085  36.6001015  65.9299201
  14.0472269  36.7823399  66.1367878   4.0777492  40.1318893  59.1878025
   3.9613750  39.4563796  59.8559110   4.1879752  39.6451267  58.3710178
   6.4209033  39.5929040  62.8924714   6.0567240  39.0659661  63.6037636
   7.2776149  39.2027509  62.7191200  12.3258334  30.8823373  70.1555981
  11.9941659  31.7518784  69.9317196  11.7303947  30.5659657  70.8350011
   6.0614520  34.6218940  57.8886063   6.2288923  35.4899176  58.2556534
   5.8711689  34.7846221  56.9647352   8.8189853  43.0835919  69.5551893
   8.5190576  43.9860957  69.4467701   8.4740913  42.8168102  70.4073046
   2.2702335  39.5349715  65.5888598   1.3452831  39.4025930  65.7966290
   2.5186748  40.3143935  66.0858540  12.2186997  35.6018459  67.2349331
  11.3103875  35.5333867  66.9408092  12.1674593  36.0790404  68.0631156
   6.0403741  37.0776597  58.8732730   5.9203366  37.5233648  59.7118210
   5.3456329  37.4261915  58.3146268   3.8010633  49.8480239  62.5222861
   3.7234663  50.7988064  62.6011342   3.1972277  49.5026111  63.1797787
  14.0848644  33.8034897  69.0127205  13.4423024  34.0967430  68.3666999
  13.5803572  33.6887818  69.8180401  11.7388807  37.5498070  59.7013064
  12.6506663  37.7825457  59.5260761  11.2298454  38.1335115  59.1388142
  10.0229575  41.9722698  73.3374356  10.4312931  41.5305109  72.5928989
   9.3006836  41.3975326  73.5908549   6.3760645  36.9095305  70.7107913
   7.2221840  37.3334719  70.8542562   6.3159283  36.2528929  71.4046476
  10.3458390  42.5323889  67.0926645   9.7167252  42.6969603  66.3902713
   9.9584052  42.9465498  67.8637609  14.2247621  43.4678327  64.4471009
  13.5398660  43.8477228  63.8968042  14.3091471  44.0773653  65.1802957
  11.4798553  41.1138286  71.0466353  11.6915448  41.7570046  70.3700734
  11.4328301  40.2800602  70.5788283   9.0824782  33.7256106  67.9502925
   8.2209261  34.0237360  68.2419662   9.1087217  33.9426505  67.0183957
   5.8986351  42.2698297  64.3576730   6.3624697  42.5486000  63.5681353
   5.6343150  41.3681742  64.1749821   2.7910432  41.8169778  67.2956494
   3.3611790  42.2457047  66.6573978   3.3818544  41.5352363  67.9940679
   4.8355237  38.3921449  61.1666296   5.5379281  38.8442493  61.6340222
   4.5035866  37.7505268  61.7946189  12.5944381  43.9910241  69.2188710
  13.4161825  43.5890428  68.9371392  12.5906784  43.8878475  70.1704826
   6.3600984  43.5394284  71.3749420   6.4245417  44.0014692  72.2107592
   5.6511908  42.9091649  71.5031730  20.6850374  40.3348990  65.5673681
  19.9314082  39.7656388  65.4117686  20.8197915  40.3011654  66.5144316
   6.0749002  45.2062392  61.2428401   5.9394677  46.0513928  61.6713249
   6.6158815  45.4081670  60.4794335   1.3373284  45.8403586  63.8979079
   1.5139913  46.7621551  63.7100063   2.1330118  45.5262005  64.3273459
   9.7998717  46.1088758  73.4010144   9.7817192  46.9297639  72.9090413
  10.7218637  45.9842834  73.6260285   9.3891748  38.7201565  58.2799729
   8.8738372  39.4906170  58.5188117   9.1169057  38.0466701  58.9032791
   6.9738859  33.5651266  63.3384968   6.1180456  33.1758116  63.1590606
   7.3865811  33.6443227  62.4784753   8.5038006  31.0997609  67.7376527
   8.0002802  31.0627744  66.9244333   8.7968613  32.0090352  67.7973184
   4.7480892  31.1836339  66.7442709   5.6133889  30.9879147  66.3848599
   4.8158401  30.9546690  67.6712066  14.3626023  41.4733920  60.2152903
  13.5855465  41.1345079  59.7708065  15.0417504  41.4786543  59.5407868
   9.1778052  36.5928657  60.1059510   8.8728187  36.9074806  60.9569654
  10.1308494  36.6710077  60.1486843   7.6224483  42.7518880  61.7552464
   7.0945845  42.0171640  61.4425702   7.1211986  43.5293557  61.5092433
  12.6017329  40.9467901  66.8719511  11.9441004  41.6367162  66.9599639
  13.4057729  41.3364333  67.2153497   2.3543211  33.4138547  64.1159076
   2.9286963  33.1913728  63.3832269   2.9414193  33.4827241  64.8687677
  11.4122788  39.3012274  64.9223453  11.9254670  39.9342265  65.4245162
  12.0624012  38.7013469  64.5566813   2.6812798  35.4443008  58.1354961
   1.8450110  35.7817694  58.4564236   2.5417568  35.3091987  57.1982098
   4.6565879  30.2879796  62.8434145   4.0030291  29.9728813  62.2190760
   4.6146353  29.6655536  63.5693968   5.7677084  40.5699091  54.7587437
   4.8604145  40.3388344  54.9578586   6.2648116  39.7736710  54.9461419
   8.6745162  49.2796598  57.6784124   8.0006861  49.5828295  58.2869081
   9.0610984  50.0825678  57.3289581   7.8903619  36.7761729  67.1681793
   6.9726180  36.9976676  67.0103481   8.3063763  36.8508040  66.3093500
   8.6738667  38.1753145  62.2984473   9.4210486  38.6874542  61.9891595
   8.9430256  37.8537197  63.1588867   6.9465317  40.6711685  59.2811428
   6.0376536  40.3870718  59.3783897   6.9760401  41.0910764  58.4214734
  12.1784584  44.2818275  63.0502595  11.7246912  43.4409185  63.1067786
  11.5478551  44.9179673  63.3877375  11.1217504  35.2110261  64.2803263
  10.3840261  34.6987647  64.6113505  11.3744278  34.7710643  63.4686539
  10.6217524  46.1194772  63.9852413  10.9140498  46.6799829  63.2664779
  11.1316144  46.4123333  64.7405572  11.2229131  27.9886513  64.8745032
  11.5288008  27.1283876  64.5870947  11.9481736  28.5804133  64.6744026
   5.4950211  38.2840306  65.3821223   5.5498821  37.3314142  65.3063700
   4.6841413  38.4399745  65.8662521   6.6441405  42.2120429  56.6199506
   6.2060835  41.4956288  56.1605144   7.3851846  42.4396544  56.0584598
   3.4342571  36.9017366  63.1411602   2.6210437  37.2011536  63.5476794
   3.9301565  36.5073055  63.8586084   5.5851149  46.8975123  65.0745867
   5.5427328  47.1235969  64.1454399   6.5013848  46.6638497  65.2231668
   9.0316783  37.3659190  71.9726496   9.3866170  37.5930663  72.8320961
   9.6788914  37.6977567  71.3503751  14.7614520  40.4877626  62.6775825
  14.6232418  40.6779222  61.7497014  14.4050738  41.2497009  63.1343876
   2.9256646  34.4735721  68.7572837   3.5656025  34.3324480  68.0595800
   2.0934176  34.1870235  68.3811439  14.7883899  42.5554153  67.6887096
  15.2220406  42.4629442  68.5370150  15.5015480  42.5311654  67.0507112
   3.7016950  43.7738152  64.8707829   4.4957548  43.2788472  64.6690404
   2.9908642  43.2456015  64.5075535   8.5211794  46.1556247  69.2220197
   8.5748816  46.7247184  69.9897913   7.6526575  46.3258132  68.8574234
  15.6499449  42.5977854  70.2219982  15.8435339  43.5023664  70.4679257
  15.5500067  42.1385273  71.0558567  10.7114557  42.7484597  75.7960862
  10.5600064  42.5195148  74.8790946  10.7019237  43.7055198  75.8092207
   7.4799894  40.3216509  70.7807129   8.4091954  40.4727669  70.6076096
   7.0590924  40.4100530  69.9255775   6.2788226  44.3467174  68.5505666
   6.1399311  43.9785958  69.4231604   5.4902822  44.8614813  68.3789624
   6.8736378  49.4476270  59.8931203   7.0488133  48.9764313  60.7076826
   6.1869166  50.0742036  60.1212464   7.8293441  43.7248776  65.9394504
   7.4943273  43.6849546  66.8352154   7.3297386  43.0593492  65.4664914
  10.7652632  41.0704811  56.2131564  10.1481803  40.3451639  56.1164616
  10.2969121  41.8314171  55.8698638   4.4319985  38.8436366  70.9530765
   5.1419604  38.2029558  70.9117383   4.3889294  39.0949261  71.8756946
  12.4206764  45.7803719  73.8737344  12.3619310  45.0962939  73.2067927
  12.8226282  46.5222709  73.4217970   2.5551178  35.2890235  55.3352868
   1.6780645  35.1679036  54.9715115   3.0308931  34.4976313  55.0831757
  12.4224171  43.7443303  72.1051324  11.5350950  43.4069225  72.2277723
  12.9922722  43.0126334  72.3420089   5.9525325  48.4044755  69.0712567
   5.8795496  49.2099727  69.5831872   5.5102718  48.6036721  68.2460588
   5.7415104  47.6416525  62.5815389   4.9582626  48.1838206  62.6753613
   6.4407850  48.1590505  62.9809630   9.0511755  33.4511155  65.2249594
   9.5480454  32.6981117  64.9050664   8.2798736  33.4875472  64.6592803
  16.9041512  39.1551520  66.8667885  16.8931388  40.0376236  66.4961819
  16.0358891  38.8023071  66.6722423   8.4124008  48.3031589  71.2270726
   9.1251980  48.9379054  71.1546627   7.9214037  48.3995455  70.4110727
  10.1341535  42.2082842  62.7988017   9.1997814  42.3284305  62.6292722
  10.3118204  41.3055309  62.5348027   5.6346723  35.5928538  64.9521279
   5.2644511  35.0399578  65.6402184   6.1305816  34.9886671  64.3996279
  13.5214087  38.0500161  63.3338051  13.9874539  38.8828153  63.2598354
  13.9721587  37.5845143  64.0383310  11.5890318  44.3943983  60.3324204
  11.8650162  44.2800577  61.2418078  10.7194816  43.9961468  60.2936377
  11.4930749  30.4180748  67.3728953  10.5793829  30.6484975  67.5411160
  11.9223851  30.5019192  68.2242985  11.2637208  38.6070640  69.8728847
  10.6108658  38.8546548  69.2181300  11.6417588  37.7934779  69.5391324
   8.2244382  48.6430334  63.9757017   8.4066776  47.8251989  64.4384769
   9.0477368  48.8598026  63.5381907   8.5586547  47.5698519  61.2372066
   9.0874314  47.0590973  60.6242228   8.8214767  47.2541049  62.1017599
   1.9142295  48.6213635  63.9969842   1.2452670  49.1059763  63.5133882
   1.7755165  48.8682856  64.9113220   9.1915951  48.6039354  67.5816182
   9.0667090  47.8029094  67.0727128   9.8495042  49.0985548  67.0930152
  11.2550859  46.4048374  69.2095732  10.3081195  46.2853726  69.1374059
  11.6033632  45.5170873  69.2921994   8.2597293  46.2001091  65.4100084
   8.1122255  45.2717798  65.5907654   9.0850786  46.2221181  64.9257160
   2.1259537  34.8519158  61.2680577   2.4655609  35.3805079  60.5459185
   2.5731657  35.1899564  62.0439143  11.8631414  47.0229649  66.4964957
  12.7877962  46.8172511  66.3589408  11.6946718  46.7746051  67.4054299
   4.1127684  33.3493779  59.4673869   4.8336047  33.7275032  58.9637586
   3.4892988  34.0682656  59.5708847   8.2558807  34.0538928  60.4032202
   8.4722421  34.9363566  60.1021030   7.7752874  33.6625142  59.6737844
   2.9958028  37.0124642  66.9802946   2.8502609  37.3264945  67.8727228
   2.5183232  37.6309542  66.4273845   4.8554411  34.0027190  67.0283836
   4.8415980  33.1068283  66.6916134   5.5726839  34.0097853  67.6622122
   6.7080542  34.4364530  69.0736963   6.4498320  35.3581600  69.0721294
   6.1765582  34.0394964  69.7637427  11.6526731  47.5415317  61.8527049
  11.8263608  46.9761739  61.1000901  12.1455622  48.3416212  61.6706539
   4.2591307  32.8841570  62.2971406   4.3807218  31.9558216  62.4962293
   3.9693350  32.8980256  61.3849721   7.1282498  30.5696480  65.4338126
   7.1504194  30.6335813  64.4790105   7.5450557  29.7300989  65.6278632
  17.5066122  40.3051740  63.4717348  17.9497268  39.5559065  63.0736472
  16.6292632  40.2961876  63.0891080  12.6401903  46.8582081  58.9523947
  13.3352808  47.4788774  59.1711262  12.9825053  46.0077433  59.2276325
  14.5393326  44.3081787  60.4811278  15.0644650  44.6469060  59.7560598
  14.4515679  43.3728802  60.2974412   6.2233987  50.3753770  64.8406531
   5.7838977  49.8830149  65.5339388   6.9742104  49.8326738  64.5998606
   3.6707859  45.9191779  66.9128833   3.0487869  45.2562484  66.6131060
   4.3412726  45.9452911  66.2302480  14.2287232  44.9414690  75.7862476
  13.4382776  44.9238829  75.2466975  13.9920587  45.4802984  76.5411512
  14.3485107  41.7907157  73.0995204  14.3983112  41.6257164  74.0410727
  14.2399031  40.9234416  72.7093085   3.2321366  44.4695703  60.3887293
   3.3809486  45.1531167  59.7353966   4.0387810  44.4500793  60.9036749
  11.6388870  37.7738085  74.4154511  12.5398733  37.6344550  74.1238509
  11.7136844  37.9392540  75.3552688  15.8503304  44.2104098  73.3437226
  15.5588113  44.5734079  74.1800687  15.2375436  43.4971107  73.1650558
  17.0498987  41.7756978  65.8639796  17.8845878  42.2146782  66.0277356
  17.1858115  41.2995631  65.0448042  14.0990493  39.3336713  71.8117284
  14.5744614  39.5264359  71.0036135  13.1756058  39.3895899  71.5660667
   0.9873999  40.4960880  61.3948362   0.7420041  39.5923210  61.5928572
   1.1569914  40.4978031  60.4527840   8.9283303  27.7884839  66.2974014
   9.2085057  27.1208028  66.9234441   9.7133910  27.9813935  65.7848678
   6.7316772  46.9643833  57.8599040   6.1590739  47.5834020  57.4069512
   7.3049565  47.5143195  58.3938962  12.7992162  36.2102473  70.0445589
  13.7509584  36.3100571  70.0657813  12.6295612  35.4180742  70.5543674
  10.8206541  33.2958056  70.2304990  10.2256473  33.5763069  69.5351479
  10.5356238  33.7851957  71.0021731   9.9514031  47.2480983  58.9907623
  10.8844705  47.1826545  59.1940498   9.8637244  48.0837250  58.5322155
  12.5802048  46.5646853  55.9511570  12.5015680  46.2306717  56.8447328
  13.4011715  47.0568621  55.9503043  15.2780239  39.4308593  69.1587889
  15.2456559  38.4924593  69.3447573  15.8880863  39.5092629  68.4253714
   7.1163570  38.3004646  55.2015093   8.0622675  38.1710854  55.2703511
   6.7377815  37.5619308  55.6784521  15.4274728  36.2219636  69.2046172
  14.9113776  35.4378093  69.0176101  16.3114676  35.8938353  69.3692692
  13.0885455  29.9660652  65.1641985  12.8910276  29.6575740  66.0485317
  13.6985160  30.6922291  65.2939915  21.0956789  40.4924600  68.2993926
  21.8260178  40.2309888  68.8601629  20.4863735  39.7553322  68.3395994
  19.1772086  38.6332462  68.8968377  18.4505250  38.4988427  68.2884869
  18.7619373  38.9409291  69.7025095   5.3006487  36.2254622  55.1369978
   4.3937943  35.9287735  55.2132692   5.5782468  35.9284440  54.2704264
   6.9168553  30.7691512  61.2914219   6.1069281  30.4238597  61.6669466
   7.6052970  30.4599056  61.8801831   8.8459101  29.8469559  62.9138516
   9.3990140  30.2665012  63.5728539   9.0829188  28.9205307  62.9561472
   4.0705272  33.0841557  55.2781957   4.9324436  33.4096456  55.5377775
   4.2555616  32.2973053  54.7655023  12.2237908  31.9570084  62.4217180
  11.6436577  32.6154888  62.0395233  11.9573841  31.1347428  62.0104598
  10.6741475  31.3575142  64.6238501  11.1741253  31.4691676  63.8152820
  11.3177083  31.0536194  65.2639309  11.0062786  34.1170174  61.4773529
  10.1188641  34.4019825  61.2593723  11.4216776  33.9563938  60.6300806
  14.3577323  34.1416695  65.1927868  15.1337713  34.6313148  65.4652485
  13.6325457  34.5674749  65.6499737  16.7949881  34.8544314  66.2501809
  17.3894372  34.6140050  65.5395117  16.8676465  34.1351445  66.8775345
  10.1506000  43.8814849  55.5721549  10.8541850  44.0864851  56.1879204
   9.4268649  44.4491611  55.8370632  10.9803810  39.6324710  61.6923819
  10.9239012  40.0893262  60.8531451  11.5332153  38.8715395  61.5146662
  14.7908616  35.4214442  62.5173938  14.5345550  35.0211078  63.3482146
  14.1661484  36.1358236  62.3924077  19.1020954  38.1610515  65.0245230
  18.5420512  38.2303705  65.7976792  18.4964457  37.9851500  64.3044726
  12.0592697  44.3197378  57.6220009  12.8938301  43.8878577  57.4397483
  11.8977040  44.1479392  58.5496903  11.7138589  40.8229491  58.9876348
  11.6587393  40.6573763  58.0464792  11.0884645  41.5305524  59.1438538
   5.0234715  30.3237600  58.5661666   5.0113385  31.2679440  58.7229937
   5.9158137  30.1407746  58.2721128   4.9524279  49.0006491  66.6529423
   4.0019910  49.0008352  66.5393795   5.2556765  48.2539225  66.1365458
   8.8386834  26.9180377  62.8207603   8.0719230  26.3638864  62.9664286
   9.2497539  26.9902246  63.6821755  20.6876972  54.8367029  67.7175185
  21.3255382  54.7173777  67.0138526  20.5697815  55.7847873  67.7763138
  17.4966679  54.7894457  67.6536710  17.1585190  54.6735522  66.7657245
  18.3656447  54.3885622  67.6337716  13.3553494  56.6429934  63.6433601
  12.7918360  56.5519871  62.8749889  13.2405889  55.8229838  64.1236094
  17.9786462  55.9429309  73.6122916  17.9675102  55.5482107  72.7403419
  18.1407101  55.2095382  74.2056687  10.9017926  58.1381125  66.4817822
  11.6939218  57.7971950  66.0664121  11.1414576  58.2476100  67.4019975
  18.9353053  60.3100901  58.9548066  18.2841033  60.8954982  58.5682080
  19.7297416  60.8407096  59.0143103  12.8608680  57.3990039  59.3535200
  13.6339556  56.8519026  59.2148076  13.2134079  58.2634288  59.5649662
  15.6249930  56.1043269  69.1503459  16.2213502  55.8799292  68.4360422
  15.6824901  55.3628015  69.7528907  15.1974958  53.5582705  56.9853650
  15.4500479  53.0364226  56.2237113  14.2599517  53.3948850  57.0880334
  20.2418241  52.5618483  64.7928393  21.0281330  52.1437906  64.4418810
  20.5056945  53.4664575  64.9610042  20.4128318  57.9991333  59.4917050
  19.7774151  58.0725960  60.2037955  20.0825725  58.5884932  58.8136130
  25.6426668  52.4993716  65.6961372  26.3751840  51.9292933  65.9299201
  24.8866024  52.1115317  66.1367878  14.9171247  55.4610811  59.1878025
  14.8007505  54.7855714  59.8559110  15.0273507  54.9743185  58.3710178
  17.2602788  54.9220958  62.8924714  16.8960995  54.3951579  63.6037636
  18.1169904  54.5319427  62.7191200  23.1652088  46.2115290  70.1555981
  22.8335413  47.0810701  69.9317196  22.5697702  45.8951574  70.8350011
  16.9008275  49.9510857  57.8886063  17.0682677  50.8191094  58.2556534
  16.7105444  50.1138139  56.9647352  19.6583608  58.4127836  69.5551893
  19.3584331  59.3152875  69.4467701  19.3134667  58.1460020  70.4073046
  13.1096089  54.8641633  65.5888598  12.1846586  54.7317847  65.7966290
  13.3580503  55.6435852  66.0858540  23.0580752  50.9310377  67.2349331
  22.1497629  50.8625785  66.9408092  23.0068347  51.4082321  68.0631156
  16.8797496  52.4068515  58.8732730  16.7597121  52.8525566  59.7118210
  16.1850084  52.7553833  58.3146268  10.4704900  54.5074907  66.4232387
  10.5997282  54.7609386  67.3371799   9.7902352  55.1002615  66.1037042
  14.6404388  65.1772157  62.5222861  14.5628417  66.1279982  62.6011342
  14.0366031  64.8318029  63.1797787  17.1321617  52.3500022  75.1784228
  16.3554952  52.9093942  75.1687093  17.7712181  52.8356805  75.6999098
  24.9242398  49.1326815  69.0127205  24.2816778  49.4259348  68.3666999
  24.4197327  49.0179735  69.8180401  22.5782562  52.8789988  59.7013064
  23.4900418  53.1117375  59.5260761  22.0692209  53.4627032  59.1388142
  20.8623329  57.3014616  73.3374356  21.2706685  56.8597026  72.5928989
  20.1400591  56.7267243  73.5908549  17.2154399  52.2387223  70.7107913
  18.0615595  52.6626636  70.8542562  17.1553037  51.5820847  71.4046476
  21.1852144  57.8615807  67.0926645  20.5561006  58.0261521  66.3902713
  20.7977806  58.2757416  67.8637609  25.0641376  58.7970244  64.4471009
  24.3792414  59.1769146  63.8968042  25.1485225  59.4065571  65.1802957
  20.3653845  49.8991591  72.3689087  20.1214777  50.6533652  71.8323363
  20.6413775  50.2776939  73.2036334  22.3192308  56.4430203  71.0466353
  22.5309203  57.0861963  70.3700734  22.2722056  55.6092520  70.5788283
  19.9218537  49.0548024  67.9502925  19.0603016  49.3529278  68.2419662
  19.9480971  49.2718423  67.0183957  16.7380106  57.5990215  64.3576730
  17.2018451  57.8777918  63.5681353  16.4736904  56.6973659  64.1749821
  13.6304187  57.1461696  67.2956494  14.2005544  57.5748965  66.6573978
  14.2212299  56.8644281  67.9940679  15.6748992  53.7213367  61.1666296
  16.3773035  54.1734411  61.6340222  15.3429620  53.0797186  61.7946189
   9.4174326  51.9796920  66.4683429   8.6273380  52.2354448  65.9923540
   9.9085573  52.7945258  66.5735470  23.4338135  59.3202159  69.2188710
  24.2555579  58.9182346  68.9371392  23.4300538  59.2170393  70.1704826
  11.3689071  52.3441499  63.4266906  10.5720235  52.4560193  63.9450401
  11.1414664  52.6828151  62.5607796  17.1994739  58.8686202  71.3749420
  17.2639171  59.3306609  72.2107592  16.4905663  58.2383567  71.5031730
   7.7012029  52.2327410  68.8998420   7.9520067  53.1174420  69.1655996
   8.2371577  52.0532012  68.1273512  31.5244129  55.6640907  65.5673681
  30.7707837  55.0948305  65.4117686  31.6591670  55.6303572  66.5144316
  16.9142757  60.5354310  61.2428401  16.7788431  61.3805845  61.6713249
  17.4552569  60.7373587  60.4794335  10.3672154  58.0529748  61.8156326
  10.8796675  58.8472998  61.9661891  11.0194867  57.3556038  61.7489927
  12.1767039  61.1695504  63.8979079  12.3533667  62.0913469  63.7100063
  12.9723872  60.8553923  64.3273459  16.3178057  48.0303769  75.4963013
  17.0587771  48.6310922  75.4167475  16.5495980  47.2881406  74.9381055
  20.6392471  61.4380676  73.4010144  20.6210946  62.2589557  72.9090413
  21.5612391  61.3134751  73.6260285  20.2635220  44.0584872  69.7727294
  19.9199490  44.9486513  69.6966405  20.6314183  43.8686529  68.9096879
   8.3321071  56.3818402  62.5915896   9.1696293  56.7915410  62.3749604
   8.5099338  55.4417844  62.5616090  20.2285503  54.0493483  58.2799729
  19.7132126  54.8198087  58.5188117  19.9562811  53.3758619  58.9032791
  17.8132614  48.8943183  63.3384968  16.9574210  48.5050034  63.1590606
  18.2259566  48.9735144  62.4784753  19.3431761  46.4289527  67.7376527
  18.8396556  46.3919662  66.9244333  19.6362367  47.3382269  67.7973184
  15.5874646  46.5128256  66.7442709  16.4527643  46.3171065  66.3848599
  15.6552155  46.2838608  67.6712066  25.2019777  56.8025837  60.2152903
  24.4249220  56.4636997  59.7708065  25.8811258  56.8078460  59.5407868
  20.0171806  51.9220575  60.1059510  19.7121942  52.2366724  60.9569654
  20.9702248  52.0001995  60.1486843  18.4618238  58.0810798  61.7552464
  17.9339599  57.3463558  61.4425702  17.9605741  58.8585474  61.5092433
  23.4411084  56.2759819  66.8719511  22.7834758  56.9659080  66.9599639
  24.2451483  56.6656250  67.2153497  13.1936966  48.7430464  64.1159076
  13.7680717  48.5205646  63.3832269  13.7807948  48.8119159  64.8687677
  22.2516543  54.6304191  64.9223453  22.7648424  55.2634183  65.4245162
  22.9017767  54.0305387  64.5566813  13.5206553  50.7734925  58.1354961
  12.6843865  51.1109612  58.4564236  13.3811322  50.6383905  57.1982098
  15.4959633  45.6171713  62.8434145  14.8424046  45.3020730  62.2190760
  15.4540107  44.9947454  63.5693968  16.6070838  55.8991008  54.7587437
  15.6997900  55.6680262  54.9578586  17.1041870  55.1028628  54.9461419
  19.5138917  64.6088515  57.6784124  18.8400616  64.9120212  58.2869081
  19.9004739  65.4117596  57.3289581  18.7297374  52.1053647  67.1681793
  17.8119935  52.3268594  67.0103481  19.1457517  52.1799957  66.3093500
  19.5132421  53.5045062  62.2984473  20.2604240  54.0166460  61.9891595
  19.7824011  53.1829115  63.1588867  17.7859072  56.0003603  59.2811428
  16.8770291  55.7162636  59.3783897  17.8154155  56.4202682  58.4214734
  23.0178339  59.6110193  63.0502595  22.5640666  58.7701103  63.1067786
  22.3872306  60.2471591  63.3877375  21.9611259  50.5402179  64.2803263
  21.2234015  50.0279565  64.6113505  22.2138032  50.1002560  63.4686539
  21.4611278  61.4486689  63.9852413  21.7534253  62.0091746  63.2664779
  21.9709899  61.7415250  64.7405572  22.0622886  43.3178431  64.8745032
  22.3681763  42.4575794  64.5870947  22.7875491  43.9096051  64.6744026
   8.3547242  53.7209117  63.2626630   8.1571642  53.1278478  62.5377696
   7.7993906  53.4161327  63.9802569  16.3343966  53.6132224  65.3821223
  16.3892575  52.6606060  65.3063700  15.5235168  53.7691663  65.8662521
  17.4835159  57.5412347  56.6199506  17.0454589  56.8248206  56.1605144
  18.2245600  57.7688462  56.0584598  14.2736325  52.2309283  63.1411602
  13.4604191  52.5303454  63.5476794  14.7695320  51.8364972  63.8586084
  16.4244903  62.2267040  65.0745867  16.3821082  62.4527887  64.1454399
  17.3407602  61.9930415  65.2231668  19.8710537  52.6951108  71.9726496
  20.2259925  52.9222581  72.8320961  20.5182668  53.0269485  71.3503751
  25.6008274  55.8169544  62.6775825  25.4626173  56.0071140  61.7497014
  25.2444493  56.5788927  63.1343876  13.7650400  49.8027639  68.7572837
  14.4049780  49.6616398  68.0595800  12.9327931  49.5162152  68.3811439
  25.6277654  57.8846071  67.6887096  26.0614160  57.7921360  68.5370150
  26.3409234  57.8603571  67.0507112  14.5410704  59.1030069  64.8707829
  15.3351303  58.6080390  64.6690404  13.8302397  58.5747933  64.5075535
  19.3605549  61.4848165  69.2220197  19.4142571  62.0539101  69.9897913
  18.4920330  61.6550050  68.8574234  10.8493468  53.2473151  60.9467582
   9.9191056  53.1857607  61.1637544  10.9450940  52.7249104  60.1504223
  10.7679017  49.7727964  63.5345824  11.0285834  50.6873297  63.4254984
  11.5896189  49.3052407  63.6842436  12.2403942  51.1865721  70.7044648
  12.9126995  50.9783083  70.0557297  11.4133729  50.9887807  70.2649880
  26.4893203  57.9269772  70.2219982  26.6829093  58.8315582  70.4679257
  26.3893821  57.4677191  71.0558567  18.1429514  47.8127662  72.7210309
  17.4957429  48.5117612  72.6274785  18.9130529  48.2463806  73.0886557
  21.5508312  58.0776514  75.7960862  21.3993818  57.8487066  74.8790946
  21.5412991  59.0347116  75.8092207  18.3193648  55.6508427  70.7807129
  19.2485708  55.8019587  70.6076096  17.8984678  55.7392448  69.9255775
  17.1181980  59.6759091  68.5505666  16.9793066  59.3077876  69.4231604
  16.3296576  60.1906731  68.3789624  17.7130132  64.7768188  59.8931203
  17.8881888  64.3056231  60.7076826  17.0262920  65.4033954  60.1212464
  18.6687195  59.0540694  65.9394504  18.3337028  59.0141464  66.8352154
  18.1691141  58.3885410  65.4664914  12.6431439  54.4608324  71.4647085
  12.5051237  53.7288563  72.0658624  13.5536363  54.3717224  71.1831273
  21.6046387  56.3996728  56.2131564  20.9875558  55.6743557  56.1164616
  21.1362875  57.1606089  55.8698638  15.2713740  54.1728283  70.9530765
  15.9813358  53.5321476  70.9117383  15.2283048  54.4241178  71.8756946
  23.2600519  61.1095637  73.8737344  23.2013065  60.4254857  73.2067927
  23.6620037  61.8514627  73.4217970  13.9842674  51.1593501  72.7726404
  13.4480031  50.7084240  73.4248001  13.3959382  51.2939410  72.0296869
  13.3944933  50.6182153  55.3352868  12.5174399  50.4970954  54.9715115
  13.8702686  49.8268231  55.0831757  23.2617926  59.0735221  72.1051324
  22.3744705  58.7361143  72.2277723  23.8316477  58.3418252  72.3420089
   4.9147073  55.4059312  65.4294375   5.6018113  55.0921043  64.8415391
   4.7595202  56.3100677  65.1561627   9.7181795  50.2949509  69.8579399
   9.6339984  49.6875179  69.1229809   8.8964502  50.7858527  69.8588895
  16.7919079  63.7336673  69.0712567  16.7189251  64.5391645  69.5831872
  16.3496472  63.9328639  68.2460588  16.5808859  62.9708443  62.5815389
  15.7976381  63.5130123  62.6753613  17.2801604  63.4882423  62.9809630
  19.8905509  48.7803073  65.2249594  20.3874209  48.0273035  64.9050664
  19.1192491  48.8167389  64.6592803  27.7435266  54.4843438  66.8667885
  27.7325143  55.3668154  66.4961819  26.8752646  54.1314989  66.6722423
  19.2517763  63.6323507  71.2270726  19.9645735  64.2670972  71.1546627
  18.7607791  63.7287373  70.4110727  20.9735290  57.5374760  62.7988017
  20.0391568  57.6576222  62.6292722  21.1511958  56.6347227  62.5348027
  16.4740478  50.9220456  64.9521279  16.1038265  50.3691496  65.6402184
  16.9699570  50.3178589  64.3996279  24.3607841  53.3792079  63.3338051
  24.8268293  54.2120071  63.2598354  24.8115342  52.9137061  64.0383310
  22.4284072  59.7235900  60.3324204  22.7043916  59.6092495  61.2418078
  21.5588571  59.3253385  60.2936377  22.3324504  45.7472666  67.3728953
  21.4187584  45.9776893  67.5411160  22.7617605  45.8311110  68.2242985
  22.1030962  53.9362558  69.8728847  21.4502413  54.1838465  69.2181300
  22.4811342  53.1226696  69.5391324  19.0638136  63.9722251  63.9757017
  19.2460531  63.1543907  64.4384769  19.8871122  64.1889943  63.5381907
  19.3980302  62.8990436  61.2372066  19.9268068  62.3882891  60.6242228
  19.6608521  62.5832967  62.1017599  18.1518535  54.6782369  76.3594884
  17.4759172  54.5776498  77.0297259  18.9746169  54.5221583  76.8230881
  12.7536050  63.9505553  63.9969842  12.0846425  64.4351681  63.5133882
  12.6148919  64.1974773  64.9113220  11.8705811  48.3324446  71.1974385
  11.9347138  49.1939277  70.7851782  11.8072932  47.7198448  70.4646743
   8.1223627  52.2124008  60.7765774   8.4177068  51.3034686  60.7232827
   7.2211662  52.1911747  60.4546776  20.0309705  63.9331272  67.5816182
  19.9060845  63.1321012  67.0727128  20.6888797  64.4277465  67.0930152
  11.6517874  50.2880005  66.7593322  10.9304459  50.9015972  66.6200796
  12.4411129  50.8237769  66.6809968  22.0944614  61.7340292  69.2095732
  21.1474949  61.6145643  69.1374059  22.4427387  60.8462790  69.2921994
  14.4544187  47.6234431  73.0333974  14.9778589  47.8696728  73.7960283
  14.2356520  48.4554466  72.6137111   9.8511468  49.8938106  60.9005099
   9.5224174  49.0135485  60.7180205  10.2050839  49.8385774  61.7881488
  19.0991047  61.5293008  65.4100084  18.9516010  60.6009716  65.5907654
  19.9244541  61.5513099  64.9257160  12.9653291  50.1811075  61.2680577
  13.3049364  50.7096997  60.5459185  13.4125412  50.5191482  62.0439143
  22.7025169  62.3521567  66.4964957  23.6271716  62.1464428  66.3589408
  22.5340472  62.1037968  67.4054299  15.6596732  48.5648126  70.7183645
  15.3193553  47.7655939  71.1204324  14.9535739  48.8649837  70.1460478
  16.3113204  45.6497439  69.1710968  17.1339273  45.1757917  69.0489858
  16.5551268  46.4287922  69.6709654  14.9521439  48.6785697  59.4673869
  15.6729801  49.0566950  58.9637586  14.3286743  49.3974574  59.5708847
  19.0952561  49.3830846  60.4032202  19.3116176  50.2655484  60.1021030
  18.6146629  48.9917059  59.6737844  13.8351783  52.3416559  66.9802946
  13.6896364  52.6556862  67.8727228  13.3576986  52.9601460  66.4273845
  15.6948166  49.3319107  67.0283836  15.6809734  48.4360201  66.6916134
  16.4120594  49.3389771  67.6622122  17.5474296  49.7656447  69.0736963
  17.2892074  50.6873518  69.0721294  17.0159337  49.3686882  69.7637427
  22.4920485  62.8707235  61.8527049  22.6657363  62.3053657  61.1000901
  22.9849376  63.6708129  61.6706539  15.0985062  48.2133488  62.2971406
  15.2200973  47.2850134  62.4962293  14.8087104  48.2272173  61.3849721
  17.9676252  45.8988398  65.4338126  17.9897949  45.9627731  64.4790105
  18.3844311  45.0592907  65.6278632  28.3459876  55.6343658  63.4717348
  28.7891022  54.8850983  63.0736472  27.4686387  55.6253794  63.0891080
  23.4795658  62.1873999  58.9523947  24.1746562  62.8080692  59.1711262
  23.8218808  61.3369350  59.2276325  25.3787081  59.6373705  60.4811278
  25.9038405  59.9760977  59.7560598  25.2909433  58.7020720  60.2974412
  17.0627742  65.7045688  64.8406531  16.6232732  65.2122066  65.5339388
  17.8135859  65.1618655  64.5998606   9.5420081  61.8957229  64.8431159
  10.3678100  61.5961001  64.4629802   9.1914133  61.1264851  65.2920948
  14.5101614  61.2483697  66.9128833  13.8881623  60.5854402  66.6131060
  15.1806481  61.2744829  66.2302480  14.5826141  49.7265485  76.5061339
  14.6314297  50.6027608  76.1239108  15.1248655  49.1842878  75.9332982
  25.0680987  60.2706608  75.7862476  24.2776531  60.2530747  75.2466975
  24.8314341  60.8094902  76.5411512  25.1878862  57.1199075  73.0995204
  25.2376867  56.9549082  74.0410727  25.0792785  56.2526334  72.7093085
  14.0715121  59.7987620  60.3887293  14.2203241  60.4823085  59.7353966
  14.8781564  59.7792710  60.9036749  22.4782624  53.1030003  74.4154511
  23.3792487  52.9636467  74.1238509  22.5530599  53.2684457  75.3552688
  16.8125430  50.4796857  73.2607697  15.9428739  50.7730423  72.9890286
  17.0484910  51.0637302  73.9814961  26.6897059  59.5396016  73.3437226
  26.3981867  59.9025997  74.1800687  26.0769190  58.8263024  73.1650558
  27.8892741  57.1048896  65.8639796  28.7239632  57.5438700  66.0277356
  28.0251870  56.6287549  65.0448042  24.9384247  54.6628631  71.8117284
  25.4138369  54.8556277  71.0036135  24.0149812  54.7187816  71.5660667
  11.8267754  55.8252798  61.3948362  11.5813796  54.9215128  61.5928572
  11.9963668  55.8269948  60.4527840  19.5164463  46.6976474  70.7773118
  20.0346407  47.4337501  70.4519606  19.1619596  47.0040468  71.6119877
  11.0963401  51.5581155  58.8934523  10.4032646  51.6325510  58.2374559
  10.8515153  50.7941499  59.4156040  19.7677058  43.1176757  66.2974014
  20.0478811  42.4499946  66.9234441  20.5527665  43.3105852  65.7848678
  17.5710526  62.2935751  57.8599040  16.9984493  62.9125938  57.4069512
  18.1443320  62.8435112  58.3938962  23.6385916  51.5394391  70.0445589
  24.5903339  51.6392488  70.0657813  23.4689366  50.7472659  70.5543674
  21.6600295  48.6249974  70.2304990  21.0650228  48.9054987  69.5351479
  21.3749992  49.1143875  71.0021731  20.7907786  62.5772901  58.9907623
  21.7238459  62.5118462  59.1940498  20.7030999  63.4129168  58.5322155
  23.4195803  61.8938771  55.9511570  23.3409434  61.5598635  56.8447328
  24.2405469  62.3860539  55.9503043  26.1173994  54.7600510  69.1587889
  26.0850314  53.8216511  69.3447573  26.7274617  54.8384547  68.4253714
  17.9557325  53.6296563  55.2015093  18.9016429  53.5002772  55.2703511
  17.5771570  52.8911225  55.6784521  26.2668482  51.5511554  69.2046172
  25.7507531  50.7670011  69.0176101  27.1508431  51.2230270  69.3692692
  23.9279209  45.2952569  65.1641985  23.7304030  44.9867658  66.0485317
  24.5378915  46.0214208  65.2939915  31.9350544  55.8216517  68.2993926
  32.6653932  55.5601805  68.8601629  31.3257489  55.0845239  68.3395994
  30.0165841  53.9624380  68.8968377  29.2899004  53.8280345  68.2884869
  29.6013128  54.2701208  69.7025095  16.1400242  51.5546540  55.1369978
  15.2331697  51.2579653  55.2132692  16.4176223  51.2576358  54.2704264
   7.0578182  52.8752903  65.5869025   6.7380967  52.0218211  65.2943399
   6.5111610  53.0901481  66.3426992  10.8358090  55.5915344  69.3038531
  11.0544100  56.5232452  69.3226565  11.2483864  55.2323319  70.0893335
  17.7562308  46.0983430  61.2914219  16.9463036  45.7530514  61.6669466
  18.4446724  45.7890973  61.8801831  19.6852856  45.1761476  62.9138516
  20.2383894  45.5956930  63.5728539  19.9222942  44.2497224  62.9561472
  14.9099026  48.4133475  55.2781957  15.7718190  48.7388373  55.5377775
  15.0949371  47.6264971  54.7655023  23.0631663  47.2862001  62.4217180
  22.4830332  47.9446806  62.0395233  22.7967596  46.4639346  62.0104598
  21.5135229  46.6867059  64.6238501  22.0135008  46.7983594  63.8152820
  22.1570837  46.3828112  65.2639309   8.8403185  56.4274068  65.4328161
   8.8173873  56.5261756  64.4810044   9.1503821  57.2739219  65.7545327
  21.8456541  49.4462092  61.4773529  20.9582396  49.7311742  61.2593723
  22.2610530  49.2855855  60.6300806  25.1971077  49.4708613  65.1927868
  25.9731467  49.9605065  65.4652485  24.4719211  49.8966667  65.6499737
  27.6343636  50.1836232  66.2501809  28.2288126  49.9431968  65.5395117
  27.7070219  49.4643363  66.8775345  20.9899754  59.2106767  55.5721549
  21.6935605  59.4156769  56.1879204  20.2662403  59.7783528  55.8370632
  21.8197565  54.9616628  61.6923819  21.7632766  55.4185179  60.8531451
  22.3725907  54.2007312  61.5146662  25.6302371  50.7506360  62.5173938
  25.3739305  50.3502995  63.3482146  25.0055239  51.4650154  62.3924077
  29.9414708  53.4902433  65.0245230  29.3814266  53.5595622  65.7976792
  29.3358212  53.3143418  64.3044726  22.8986452  59.6489296  57.6220009
  23.7332056  59.2170494  57.4397483  22.7370795  59.4771309  58.5496903
  22.5532344  56.1521409  58.9876348  22.4981148  55.9865680  58.0464792
  21.9278399  56.8597442  59.1438538  15.8628469  45.6529518  58.5661666
  15.8507139  46.5971358  58.7229937  16.7551891  45.4699663  58.2721128
  15.7918033  64.3298408  66.6529423  14.8413664  64.3300270  66.5393795
  16.0950520  63.5831143  66.1365458  19.6780589  42.2472295  62.8207603
  18.9112985  41.6930781  62.9664286  20.0891294  42.3194163  63.6821755
  31.5270727  70.1658947  67.7175185  32.1649137  70.0465694  67.0138526
  31.4091570  71.1139791  67.7763138  28.3360433  70.1186375  67.6536710
  27.9978945  70.0027440  66.7657245  29.2050201  69.7177540  67.6337716
  24.1947249  71.9721851  63.6433601  23.6312114  71.8811788  62.8749889
  24.0799644  71.1521756  64.1236094  21.7411681  73.4673043  66.4817822
  22.5332973  73.1263868  66.0664121  21.9808331  73.5768018  67.4019975
  29.7746808  75.6392819  58.9548066  29.1234787  76.2246899  58.5682080
  30.5691170  76.1699014  59.0143103  23.7002435  72.7281956  59.3535200
  24.4733311  72.1810943  59.2148076  24.0527834  73.5926206  59.5649662
  26.4643684  71.4335187  69.1503459  27.0607256  71.2091209  68.4360422
  26.5218656  70.6919932  69.7528907  26.0368713  68.8874622  56.9853650
  26.2894233  68.3656144  56.2237113  25.0993272  68.7240768  57.0880334
  31.0811995  67.8910401  64.7928393  31.8675085  67.4729824  64.4418810
  31.3450700  68.7956493  64.9610042  31.2522073  73.3283251  59.4917050
  30.6167906  73.4017878  60.2037955  30.9219479  73.9176850  58.8136130
  36.4820423  67.8285634  65.6961372  37.2145594  67.2584851  65.9299201
  35.7259778  67.4407234  66.1367878  25.7565001  70.7902728  59.1878025
  25.6401259  70.1147632  59.8559110  25.8667261  70.3035102  58.3710178
  28.0996542  70.2512875  62.8924714  27.7354749  69.7243496  63.6037636
  28.9563658  69.8611344  62.7191200  34.0045843  61.5407208  70.1555981
  33.6729168  62.4102619  69.9317196  33.4091456  61.2243492  70.8350011
  27.7402029  65.2802775  57.8886063  27.9076432  66.1483011  58.2556534
  27.5499198  65.4430057  56.9647352  30.4977362  73.7419754  69.5551893
  30.1978085  74.6444793  69.4467701  30.1528422  73.4751937  70.4073046
  23.9489844  70.1933551  65.5888598  23.0240340  70.0609765  65.7966290
  24.1974257  70.9727770  66.0858540  33.8974506  66.2602294  67.2349331
  32.9891384  66.1917703  66.9408092  33.8462102  66.7374239  68.0631156
  27.7191250  67.7360433  58.8732730  27.5990875  68.1817483  59.7118210
  27.0243838  68.0845750  58.3146268  21.3098655  69.8366824  66.4232387
  21.4391036  70.0901303  67.3371799  20.6296106  70.4294532  66.1037042
  35.7636153  64.4618733  69.0127205  35.1210533  64.7551266  68.3666999
  35.2591081  64.3471653  69.8180401  33.4176316  68.2081906  59.7013064
  34.3294172  68.4409293  59.5260761  32.9085963  68.7918950  59.1388142
  28.0548154  67.5679140  70.7107913  28.9009349  67.9918554  70.8542562
  27.9946792  66.9112765  71.4046476  32.0245899  73.1907724  67.0926645
  31.3954761  73.3553438  66.3902713  31.6371561  73.6049334  67.8637609
  35.9035130  74.1262162  64.4471009  35.2186169  74.5061063  63.8968042
  35.9878980  74.7357489  65.1802957  31.2047599  65.2283509  72.3689087
  30.9608531  65.9825569  71.8323363  31.4807530  65.6068856  73.2036334
  33.1586062  71.7722121  71.0466353  33.3702957  72.4153881  70.3700734
  33.1115810  70.9384438  70.5788283  30.7612291  64.3839942  67.9502925
  29.8996770  64.6821195  68.2419662  30.7874726  64.6010341  67.0183957
  27.5773860  72.9282132  64.3576730  28.0412206  73.2069835  63.5681353
  27.3130659  72.0265577  64.1749821  24.4697941  72.4753614  67.2956494
  25.0399299  72.9040882  66.6573978  25.0606053  72.1936199  67.9940679
  26.5142746  69.0505285  61.1666296  27.2166790  69.5026328  61.6340222
  26.1823375  68.4089104  61.7946189  20.2568080  67.3088837  66.4683429
  19.4667134  67.5646366  65.9923540  20.7479328  68.1237175  66.5735470
  22.2082826  67.6733417  63.4266906  21.4113989  67.7852111  63.9450401
  21.9808418  68.0120069  62.5607796  18.5405783  67.5619328  68.8998420
  18.7913822  68.4466338  69.1655996  19.0765332  67.3823929  68.1273512
  42.3637883  70.9932825  65.5673681  41.6101591  70.4240223  65.4117686
  42.4985424  70.9595489  66.5144316  27.7536511  75.8646227  61.2428401
  27.6182186  76.7097763  61.6713249  28.2946324  76.0665505  60.4794335
  21.2065908  73.3821665  61.8156326  21.7190429  74.1764916  61.9661891
  21.8588621  72.6847956  61.7489927  27.1571812  63.3595686  75.4963013
  27.8981525  63.9602839  75.4167475  27.3889735  62.6173324  74.9381055
  31.1028975  59.3876789  69.7727294  30.7593244  60.2778431  69.6966405
  31.4707937  59.1978447  68.9096879  19.1714825  71.7110320  62.5915896
  20.0090047  72.1207328  62.3749604  19.3493093  70.7709762  62.5616090
  31.0679257  69.3785400  58.2799729  30.5525881  70.1490005  58.5188117
  30.7956566  68.7050536  58.9032791  28.6526368  64.2235101  63.3384968
  27.7967965  63.8341951  63.1590606  29.0653320  64.3027062  62.4784753
  30.1825515  61.7581444  67.7376527  29.6790311  61.7211579  66.9244333
  30.4756122  62.6674187  67.7973184  26.4268401  61.8420174  66.7442709
  27.2921398  61.6462983  66.3848599  26.4945910  61.6130526  67.6712066
  36.0413532  72.1317755  60.2152903  35.2642974  71.7928914  59.7708065
  36.7205012  72.1370378  59.5407868  30.8565561  67.2512492  60.1059510
  30.5515696  67.5658642  60.9569654  31.8096003  67.3293912  60.1486843
  29.3011992  73.4102716  61.7552464  28.7733354  72.6755475  61.4425702
  28.7999495  74.1877392  61.5092433  34.2804838  71.6051736  66.8719511
  33.6228513  72.2950998  66.9599639  35.0845238  71.9948168  67.2153497
  24.0330720  64.0722382  64.1159076  24.6074472  63.8497563  63.3832269
  24.6201702  64.1411076  64.8687677  33.0910297  69.9596109  64.9223453
  33.6042179  70.5926101  65.4245162  33.7411521  69.3597304  64.5566813
  24.3600307  66.1026843  58.1354961  23.5237619  66.4401530  58.4564236
  24.2205077  65.9675823  57.1982098  26.3353388  60.9463631  62.8434145
  25.6817800  60.6312648  62.2190760  26.2933862  60.3239371  63.5693968
  27.4464593  71.2282926  54.7587437  26.5391654  70.9972179  54.9578586
  27.9435625  70.4320545  54.9461419  29.5691128  67.4345564  67.1681793
  28.6513689  67.6560511  67.0103481  29.9851272  67.5091875  66.3093500
  30.3526176  68.8336980  62.2984473  31.0997995  69.3458377  61.9891595
  30.6217765  68.5121033  63.1588867  28.6252826  71.3295521  59.2811428
  27.7164045  71.0454554  59.3783897  28.6547910  71.7494599  58.4214734
  33.8572093  74.9402110  63.0502595  33.4034421  74.0993020  63.1067786
  33.2266060  75.5763509  63.3877375  32.8005013  65.8694096  64.2803263
  32.0627770  65.3571483  64.6113505  33.0531787  65.4294478  63.4686539
  32.3005033  76.7778607  63.9852413  32.5928007  77.3383664  63.2664779
  32.8103653  77.0707168  64.7405572  32.9016640  58.6470348  64.8745032
  33.2075517  57.7867712  64.5870947  33.6269245  59.2387969  64.6744026
  19.1940996  69.0501035  63.2626630  18.9965396  68.4570396  62.5377696
  18.6387660  68.7453245  63.9802569  27.1737720  68.9424141  65.3821223
  27.2286330  67.9897978  65.3063700  26.3628922  69.0983581  65.8662521
  28.3228914  72.8704264  56.6199506  27.8848344  72.1540123  56.1605144
  29.0639355  73.0980379  56.0584598  25.1130080  67.5601201  63.1411602
  24.2997946  67.8595372  63.5476794  25.6089074  67.1656890  63.8586084
  30.7104292  68.0243026  71.9726496  31.0653679  68.2514499  72.8320961
  31.3576423  68.3561402  71.3503751  36.4402029  71.1461462  62.6775825
  36.3019927  71.3363058  61.7497014  36.0838247  71.9080844  63.1343876
  24.6044155  65.1319557  68.7572837  25.2443534  64.9908316  68.0595800
  23.7721685  64.8454070  68.3811439  36.4671408  73.2137989  67.6887096
  36.9007915  73.1213278  68.5370150  37.1802989  73.1895489  67.0507112
  25.3804459  74.4321987  64.8707829  26.1745057  73.9372307  64.6690404
  24.6696151  73.9039850  64.5075535  21.6887222  68.5765069  60.9467582
  20.7584810  68.5149524  61.1637544  21.7844694  68.0541022  60.1504223
  21.6072771  65.1019882  63.5345824  21.8679588  66.0165215  63.4254984
  22.4289943  64.6344324  63.6842436  23.0797696  66.5157639  70.7044648
  23.7520750  66.3075001  70.0557297  22.2527483  66.3179725  70.2649880
  28.9823269  63.1419580  72.7210309  28.3351184  63.8409529  72.6274785
  29.7524284  63.5755724  73.0886557  29.1587403  70.9800345  70.7807129
  30.0879463  71.1311504  70.6076096  28.7378433  71.0684365  69.9255775
  27.9575735  75.0051009  68.5505666  27.8186820  74.6369794  69.4231604
  27.1690331  75.5198649  68.3789624  29.5080950  74.3832612  65.9394504
  29.1730782  74.3433382  66.8352154  29.0084895  73.7177328  65.4664914
  23.4825194  69.7900242  71.4647085  23.3444992  69.0580481  72.0658624
  24.3930117  69.7009142  71.1831273  32.4440141  71.7288646  56.2131564
  31.8269312  71.0035474  56.1164616  31.9756630  72.4898006  55.8698638
  26.1107494  69.5020201  70.9530765  26.8207113  68.8613393  70.9117383
  26.0676803  69.7533096  71.8756946  24.8236428  66.4885419  72.7726404
  24.2873785  66.0376157  73.4248001  24.2353137  66.6231328  72.0296869
  24.2338687  65.9474070  55.3352868  23.3568154  65.8262871  54.9715115
  24.7096440  65.1560149  55.0831757  15.7540827  70.7351230  65.4294375
  16.4411867  70.4212960  64.8415391  15.5988956  71.6392595  65.1561627
  20.5575550  65.6241427  69.8579399  20.4733738  65.0167096  69.1229809
  19.7358256  66.1150445  69.8588895  30.7299263  64.1094990  65.2249594
  31.2267963  63.3564953  64.9050664  29.9586245  64.1459307  64.6592803
  38.5829021  69.8135356  66.8667885  38.5718897  70.6960071  66.4961819
  37.7146400  69.4606907  66.6722423  31.8129044  72.8666677  62.7988017
  30.8785323  72.9868140  62.6292722  31.9905713  71.9639144  62.5348027
  27.3134232  66.2512373  64.9521279  26.9432020  65.6983414  65.6402184
  27.8093325  65.6470507  64.3996279  35.2001596  68.7083997  63.3338051
  35.6662048  69.5411988  63.2598354  35.6509096  68.2428978  64.0383310
  33.2677827  75.0527818  60.3324204  33.5437671  74.9384413  61.2418078
  32.3982325  74.6545303  60.2936377  33.1718258  61.0764584  67.3728953
  32.2581338  61.3068811  67.5411160  33.6011360  61.1603028  68.2242985
  32.9424717  69.2654476  69.8728847  32.2896167  69.5130383  69.2181300
  33.3205097  68.4518614  69.5391324  22.7099566  63.6616364  71.1974385
  22.7740892  64.5231195  70.7851782  22.6466686  63.0490366  70.4646743
  18.9617381  67.5415926  60.7765774  19.2570822  66.6326604  60.7232827
  18.0605417  67.5203665  60.4546776  22.4911628  65.6171922  66.7593322
  21.7698214  66.2307890  66.6200796  23.2804884  66.1529687  66.6809968
  25.2937942  62.9526349  73.0333974  25.8172344  63.1988645  73.7960283
  25.0750275  63.7846384  72.6137111  20.6905223  65.2230023  60.9005099
  20.3617929  64.3427402  60.7180205  21.0444593  65.1677692  61.7881488
  29.9384802  76.8584926  65.4100084  29.7909764  75.9301633  65.5907654
  30.7638295  76.8805017  64.9257160  23.8047046  65.5102993  61.2680577
  24.1443118  66.0388914  60.5459185  24.2519166  65.8483399  62.0439143
  33.5418923  77.6813485  66.4964957  34.4665471  77.4756346  66.3589408
  33.3734227  77.4329886  67.4054299  26.4990487  63.8940044  70.7183645
  26.1587307  63.0947857  71.1204324  25.7929493  64.1941755  70.1460478
  27.1506959  60.9789356  69.1710968  27.9733028  60.5049834  69.0489858
  27.3945022  61.7579840  69.6709654  25.7915193  64.0077615  59.4673869
  26.5123556  64.3858868  58.9637586  25.1680497  64.7266492  59.5708847
  29.9346316  64.7122764  60.4032202  30.1509930  65.5947402  60.1021030
  29.4540383  64.3208977  59.6737844  24.6745537  67.6708477  66.9802946
  24.5290118  67.9848780  67.8727228  24.1970741  68.2893377  66.4273845
  26.5341920  64.6611025  67.0283836  26.5203489  63.7652118  66.6916134
  27.2514348  64.6681689  67.6622122  28.3868051  65.0948365  69.0736963
  28.1285829  66.0165436  69.0721294  27.8553091  64.6978800  69.7637427
  33.3314240  78.1999152  61.8527049  33.5051117  77.6345575  61.1000901
  33.8243131  79.0000047  61.6706539  25.9378816  63.5425405  62.2971406
  26.0594727  62.6142051  62.4962293  25.6480859  63.5564091  61.3849721
  28.8070007  61.2280316  65.4338126  28.8291703  61.2919649  64.4790105
  29.2238066  60.3884824  65.6278632  39.1853631  70.9635575  63.4717348
  39.6284777  70.2142900  63.0736472  38.3080141  70.9545712  63.0891080
  34.3189412  77.5165917  58.9523947  35.0140317  78.1372609  59.1711262
  34.6612562  76.6661268  59.2276325  36.2180835  74.9665622  60.4811278
  36.7432159  75.3052895  59.7560598  36.1303188  74.0312638  60.2974412
  25.4219896  65.0557403  76.5061339  25.4708051  65.9319525  76.1239108
  25.9642410  64.5134796  75.9332982  24.9108875  75.1279538  60.3887293
  25.0596995  75.8115002  59.7353966  25.7175319  75.1084628  60.9036749
  27.6519184  65.8088775  73.2607697  26.7822494  66.1022341  72.9890286
  27.8878664  66.3929220  73.9814961  38.7286496  72.4340813  65.8639796
  39.5633387  72.8730618  66.0277356  38.8645624  71.9579467  65.0448042
  22.6661508  71.1544716  61.3948362  22.4207550  70.2507046  61.5928572
  22.8357423  71.1561866  60.4527840  30.3558218  62.0268392  70.7773118
  30.8740162  62.7629419  70.4519606  30.0013351  62.3332385  71.6119877
  21.9357156  66.8873073  58.8934523  21.2426401  66.9617428  58.2374559
  21.6908908  66.1233417  59.4156040  30.6070812  58.4468674  66.2974014
  30.8872566  57.7791863  66.9234441  31.3921419  58.6397770  65.7848678
  34.4779670  66.8686308  70.0445589  35.4297093  66.9684406  70.0657813
  34.3083121  66.0764577  70.5543674  32.4994050  63.9541892  70.2304990
  31.9043982  64.2346904  69.5351479  32.2143747  64.4435793  71.0021731
  34.2589557  77.2230689  55.9511570  34.1803189  76.8890552  56.8447328
  35.0799224  77.7152457  55.9503043  36.9567748  70.0892428  69.1587889
  36.9244068  69.1508429  69.3447573  37.5668372  70.1676465  68.4253714
  28.7951079  68.9588481  55.2015093  29.7410184  68.8294689  55.2703511
  28.4165324  68.2203143  55.6784521  37.1062237  66.8803472  69.2046172
  36.5901285  66.0961928  69.0176101  37.9902185  66.5522188  69.3692692
  34.7672964  60.6244487  65.1641985  34.5697785  60.3159575  66.0485317
  35.3772669  61.3506126  65.2939915  40.8559595  69.2916298  68.8968377
  40.1292759  69.1572262  68.2884869  40.4406882  69.5993126  69.7025095
  26.9793996  66.8838457  55.1369978  26.0725452  66.5871570  55.2132692
  27.2569977  66.5868276  54.2704264  17.8971937  68.2044821  65.5869025
  17.5774721  67.3510129  65.2943399  17.3505365  68.4193399  66.3426992
  21.6751844  70.9207262  69.3038531  21.8937854  71.8524370  69.3226565
  22.0877618  70.5615236  70.0893335  28.5956062  61.4275347  61.2914219
  27.7856790  61.0822432  61.6669466  29.2840479  61.1182891  61.8801831
  30.5246610  60.5053394  62.9138516  31.0777649  60.9248847  63.5728539
  30.7616697  59.5789142  62.9561472  25.7492781  63.7425393  55.2781957
  26.6111945  64.0680291  55.5377775  25.9343125  62.9556889  54.7655023
  33.9025417  62.6153919  62.4217180  33.3224086  63.2738723  62.0395233
  33.6361350  61.7931264  62.0104598  32.3528984  62.0158977  64.6238501
  32.8528762  62.1275511  63.8152820  32.9964592  61.7120030  65.2639309
  19.6796939  71.7565986  65.4328161  19.6567627  71.8553673  64.4810044
  19.9897576  72.6031137  65.7545327  32.6850295  64.7754010  61.4773529
  31.7976150  65.0603660  61.2593723  33.1004284  64.6147773  60.6300806
  36.0364832  64.8000531  65.1927868  36.8125222  65.2896983  65.4652485
  35.3112966  65.2258585  65.6499737  38.4737390  65.5128150  66.2501809
  39.0681881  65.2723886  65.5395117  38.5463974  64.7935280  66.8775345
  31.8293509  74.5398684  55.5721549  32.5329359  74.7448687  56.1879204
  31.1056158  75.1075446  55.8370632  32.6591319  70.2908545  61.6923819
  32.6026521  70.7477097  60.8531451  33.2119662  69.5299230  61.5146662
  36.4696125  66.0798277  62.5173938  36.2133059  65.6794913  63.3482146
  35.8448993  66.7942071  62.3924077  40.7808463  68.8194351  65.0245230
  40.2208021  68.8887540  65.7976792  40.1751966  68.6435335  64.3044726
  33.7380206  74.9781213  57.6220009  34.5725810  74.5462412  57.4397483
  33.5764549  74.8063227  58.5496903  33.3926098  71.4813327  58.9876348
  33.3374902  71.3157598  58.0464792  32.7672154  72.1889360  59.1438538
  26.7022224  60.9821436  58.5661666  26.6900894  61.9263276  58.7229937
  27.5945646  60.7991581  58.2721128  30.5174343  57.5764212  62.8207603
  29.7506739  57.0222699  62.9664286  30.9285048  57.6486081  63.6821755
  39.4920123  79.5527019  63.3384968  38.6361719  79.1633869  63.1590606
  39.9047075  79.6318980  62.4784753  34.8724474  79.4014300  64.1159076
  35.4468226  79.1789481  63.3832269  35.4595457  79.4702994  64.8687677
  37.1747142  76.2755549  62.8434145  36.5211555  75.9604566  62.2190760
  37.1327616  75.6531289  63.5693968  43.7410395  73.9762266  64.8745032
  44.0469272  73.1159629  64.5870947  44.4663000  74.5679886  64.6744026
  40.7740070  80.0414681  60.4032202  40.9903685  80.9239319  60.1021030
  40.2934138  79.6500895  59.6737844  36.7772571  78.8717323  62.2971406
  36.8988482  77.9433969  62.4962293  36.4874613  78.8856009  61.3849721
  39.6463761  76.5572233  65.4338126  39.6685458  76.6211566  64.4790105
  40.0631820  75.7176742  65.6278632  41.4464567  73.7760592  66.2974014
  41.7266320  73.1083781  66.9234441  42.2315174  73.9689688  65.7848678
  39.4349817  76.7567265  61.2914219  38.6250545  76.4114350  61.6669466
  40.1234233  76.4474809  61.8801831  41.3640365  75.8345312  62.9138516
  41.9171403  76.2540765  63.5728539  41.6010451  74.9081060  62.9561472
  36.5886535  79.0717310  55.2781957  37.4505699  79.3972209  55.5377775
  36.7736880  78.2848806  54.7655023  44.7419172  77.9445837  62.4217180
  44.1617841  78.6030641  62.0395233  44.4755105  77.1223181  62.0104598
  43.5244050  80.1045927  61.4773529  42.6369905  80.3895578  61.2593723
  43.9398039  79.9439691  60.6300806  37.5415978  76.3113353  58.5661666
  37.5294648  77.2555193  58.7229937  38.4339400  76.1283499  58.2721128
  41.3568098  72.9056130  62.8207603  40.5900494  72.3514617  62.9664286
  41.7678803  72.9777999  63.6821755   9.8483219  16.5137234  54.4420492
  10.4861629  16.3943981  53.7383832   9.7304062  17.4618078  54.5008444
   6.6572925  16.4664662  54.3782017   6.3191437  16.3505727  53.4902552
   7.5262694  16.0655827  54.3583023   2.5159741  18.3200139  50.3678908
   1.9524606  18.2290076  49.5995195   2.4012136  17.5000043  50.8481400
   7.1392708  17.6199514  60.3368222   7.1281349  17.2252312  59.4648726
   7.3013348  16.8865587  60.9301994   8.0959300  21.9871106  45.6793373
   7.4447280  22.5725187  45.2927386   8.8903663  22.5177301  45.7388410
   2.0214927  19.0760243  46.0780507   2.7945803  18.5289231  45.9393383
   2.3740326  19.9404493  46.2894968   3.8599970  20.4036626  59.2847406
   3.5689836  21.3082257  59.1694073   4.4956954  20.4453153  59.9991476
   4.7856176  17.7813474  55.8748766   5.3819749  17.5569497  55.1605729
   4.8431148  17.0398220  56.4774214   4.3581205  15.2352910  43.7098957
   4.6106726  14.7134431  42.9482420   3.4205764  15.0719055  43.8125640
   9.4024488  14.2388688  51.5173700  10.1887577  13.8208111  51.1664117
   9.6663192  15.1434780  51.6855348   9.5734565  19.6761538  46.2162357
   8.9380398  19.7496165  46.9283262   9.2431971  20.2655137  45.5381436
  14.8032915  14.1763921  52.4206679  15.5358087  13.6063138  52.6544508
  14.0472270  13.7885522  52.8613184   4.0777494  17.1381016  45.9123332
   3.9613752  16.4625919  46.5804416   4.1879753  16.6513389  45.0955485
   6.4209034  16.5991163  49.6170021   6.0567242  16.0721784  50.3282943
   7.2776150  16.2089632  49.4436506  12.3258335   7.8885495  56.8801287
  11.9941660   8.7580906  56.6562502  11.7303949   7.5721779  57.5595318
   6.0614521  11.6281062  44.6131370   6.2288924  12.4961299  44.9801841
   5.8711691  11.7908344  43.6892659   8.8189855  20.0898041  56.2797200
   8.5190578  20.9923080  56.1713007   8.4740914  19.8230224  57.1318353
   2.2702336  16.5411838  52.3133904   1.3452833  16.4088052  52.5211596
   2.5186749  17.3206057  52.8103847  12.2186998  12.6080581  53.9594637
  11.3103876  12.5395990  53.6653398  12.1674594  13.0852526  54.7876463
   6.0403742  14.0838720  45.5978036   5.9203368  14.5295771  46.4363517
   5.3456331  14.4324038  45.0391575   3.8010634  26.8542362  49.2468168
   3.7234664  27.8050187  49.3256648   3.1972278  26.5088234  49.9043094
  14.0848645  10.8097020  55.7372511  13.4423025  11.1029553  55.0912306
  13.5803573  10.6949940  56.5425708  11.7388809  14.5560193  46.4258370
  12.6506665  14.7887580  46.2506068  11.2298456  15.1397237  45.8633449
  10.0229576  18.9784821  60.0619663  10.4312932  18.5367231  59.3174295
   9.3006838  18.4037448  60.3153856   6.3760646  13.9157428  57.4353220
   7.2221841  14.3396841  57.5787869   6.3159284  13.2591052  58.1291783
  10.3458391  19.5386011  53.8171952   9.7167253  19.7031726  53.1148020
   9.9584053  19.9527621  54.5882916  14.2247623  20.4740449  51.1716316
  13.5398661  20.8539351  50.6213349  14.3091472  21.0835776  51.9048263
  11.4798554  18.1200408  57.7711659  11.6915450  18.7632168  57.0946040
  11.4328303  17.2862725  57.3033589   9.0824783  10.7318229  54.6748231
   8.2209262  11.0299483  54.9664969   9.1087218  10.9488628  53.7429264
   5.8986353  19.2760420  51.0822037   6.3624698  19.5548123  50.2926660
   5.6343151  18.3743864  50.8995128   2.7910434  18.8231901  54.0201800
   3.3611791  19.2519169  53.3819285   3.3818546  18.5414486  54.7185986
   4.8355239  15.3983572  47.8911602   5.5379282  15.8504616  48.3585529
   4.5035867  14.7567391  48.5191495  12.5944382  20.9972364  55.9434017
  13.4161826  20.5952551  55.6616698  12.5906785  20.8940598  56.8950132
   6.3600986  20.5456407  58.0994727   6.4245418  21.0076814  58.9352899
   5.6511910  19.9153772  58.2277037  20.6850375  17.3411112  52.2918988
  19.9314084  16.7718510  52.1362992  20.8197917  17.3073777  53.2389623
   6.0749003  22.2124515  47.9673707   5.9394678  23.0576050  48.3958555
   6.6158816  22.4143792  47.2039641   1.3373285  22.8465709  50.6224386
   1.5139914  23.7683674  50.4345370   2.1330119  22.5324128  51.0518765
   7.7017480  22.8348081  62.0974049   7.2581334  22.0484460  61.7794954
   8.3634693  23.0227232  61.4317940   2.4604601  24.3643883  56.6234728
   3.0112026  24.2360946  55.8511722   1.6216077  24.6638772  56.2729621
   9.7998718  23.1150881  60.1255451   9.7817193  23.9359762  59.6335720
  10.7218638  22.9904956  60.3505592   6.2571772  20.6295010  60.9678959
   6.7900109  19.8683299  60.7378267   5.7285853  20.3368662  61.7103114
   9.3891750  15.7263688  45.0045036   8.8738373  16.4968292  45.2433423
   9.1169058  15.0528824  45.6278097   6.9738861  10.5713388  50.0630274
   6.1180457  10.1820239  49.8835913   7.3865812  10.6505349  49.2030060
   8.5038007   8.1059732  54.4621834   8.0002803   8.0689867  53.6489639
   8.7968614   9.0152474  54.5218491  14.3626024  18.4796042  46.9398209
  13.5855467  18.1407202  46.4953372  15.0417505  18.4848665  46.2653174
   9.1778053  13.5990780  46.8304817   8.8728188  13.9136929  47.6814960
  10.1308495  13.6772200  46.8732150   7.6224485  19.7581003  48.4797771
   7.0945846  19.0233763  48.1671009   7.1211987  20.5355679  48.2337739
  12.6017331  17.9530023  53.5964817  11.9441005  18.6429285  53.6844946
  13.4057730  18.3426455  53.9398804  11.4122790  16.3074396  51.6468759
  11.9254671  16.9404388  52.1490469  12.0624013  15.7075592  51.2812119
   2.6812799  12.4505130  44.8600268   1.8450112  12.7879817  45.1809543
   2.5417569  12.3154110  43.9227405   5.7677085  17.5761213  41.4832744
   4.8604147  17.3450467  41.6823893   6.2648117  16.7798832  41.6706726
   8.6745164  26.2858720  44.4029430   8.0006863  26.5890417  45.0114388
   9.0610986  27.0887801  44.0534887   7.8903620  13.7823852  53.8927100
   6.9726182  14.0038799  53.7348788   8.3063764  13.8570162  53.0338807
   8.6738668  15.1815267  49.0229780   9.4210487  15.6936665  48.7136902
   8.9430258  14.8599320  49.8834174   6.9465318  17.6773808  46.0056734
   6.0376538  17.3932841  46.1029204   6.9760402  18.0972887  45.1460041
  12.1784586  21.2880398  49.7747902  11.7246913  20.4471307  49.8313092
  11.5478552  21.9241796  50.1122682  11.1217505  12.2172384  51.0048569
  10.3840262  11.7049770  51.3358812  11.3744279  11.7772765  50.1931846
  10.6217525  23.1256894  50.7097720  10.9140499  23.6861951  49.9910086
  11.1316146  23.4185455  51.4650879  11.2229133   4.9948636  51.5990339
  11.5288009   4.1345999  51.3116254  11.9481737   5.5866256  51.3989332
   5.4950212  15.2902429  52.1066530   5.5498822  14.3376265  52.0309006
   4.6841414  15.4461868  52.5907828   6.6441406  19.2182552  43.3444813
   6.2060836  18.5018411  42.8850450   7.3851847  19.4458667  42.7829904
   3.4342572  13.9079488  49.8656908   2.6210438  14.2073659  50.2722101
   3.9301566  13.5135177  50.5831391   5.5851150  23.9037245  51.7991173
   5.5427329  24.1298092  50.8699705   6.5013849  23.6700620  51.9476974
   9.0316784  14.3721313  58.6971802   9.3866172  14.5992786  59.5566268
   9.6788915  14.7039690  58.0749058  14.7614521  17.4939749  49.4021131
  14.6232419  17.6841345  48.4742321  14.4050740  18.2559132  49.8589183
   2.9256647  11.4797844  55.4818143   3.5656026  11.3386603  54.7841107
   2.0934178  11.1932357  55.1056745  14.7883900  19.5616276  54.4132403
  15.2220407  19.4691565  55.2615457  15.5015481  19.5373776  53.7752419
   3.7016951  20.7800274  51.5953136   4.4957549  20.2850595  51.3935711
   2.9908643  20.2518137  51.2320841   8.5211795  23.1618370  55.9465503
   8.5748818  23.7309306  56.7143219   7.6526577  23.3320255  55.5819541
  15.6499450  19.6039976  56.9465288  15.8435340  20.5085787  57.1924563
  15.5500068  19.1447396  57.7803873  10.7114559  19.7546719  62.5206169
  10.5600065  19.5257271  61.6036253  10.7019238  20.7117321  62.5337514
   7.4799895  17.3278632  57.5052435   8.4091955  17.4789792  57.3321403
   7.0590925  17.4162653  56.6501082   6.2788227  21.3529296  55.2750973
   6.1399313  20.9848081  56.1476911   5.4902823  21.8676936  55.1034931
   6.8736379  26.4538393  46.6176509   7.0488135  25.9826436  47.4322132
   6.1869167  27.0804159  46.8457770   7.8293442  20.7310899  52.6639811
   7.4943275  20.6911669  53.5597461   7.3297388  20.0655615  52.1910221
  10.7652634  18.0766933  42.9376870  10.1481804  17.3513762  42.8409923
  10.2969122  18.8376294  42.5943945   4.4319987  15.8498488  57.6776072
   5.1419605  15.2091681  57.6362690   4.3889295  16.1011383  58.6002252
  12.4206765  22.7865842  60.5982651  12.3619312  22.1025062  59.9313234
  12.8226284  23.5284832  60.1463277   1.4397464  29.6027756  53.3916370
   1.6794062  30.2346280  54.0695388   0.5966661  29.2515796  53.6781729
   2.5551180  12.2952358  42.0598175   1.6780646  12.1741158  41.6960421
   3.0308933  11.5038436  41.8077063  12.4224173  20.7505426  58.8296630
  11.5350951  20.4131347  58.9523029  12.9922724  20.0188457  59.0665396
   5.9525326  25.4106878  55.7957874   5.8795498  26.2161850  56.3077178
   5.5102719  25.6098844  54.9705895   5.7415106  24.6478648  49.3060695
   4.9582628  25.1900328  49.3998920   6.4407851  25.1652628  49.7054936
   9.0511756  10.4573278  51.9494901   9.5480455   9.7043240  51.6295971
   8.2798737  10.4937594  51.3838110  16.9041513  16.1613643  53.5913192
  16.8931389  17.0438358  53.2207125  16.0358893  15.8085194  53.3967729
   8.4124010  25.3093712  57.9516032   9.1251982  25.9441177  57.8791934
   7.9214038  25.4057578  57.1356034  10.1341536  19.2144965  49.5233324
   9.1997815  19.3346427  49.3538028  10.3118205  18.3117432  49.2593334
   5.6346725  12.5990661  51.6766585   5.2644512  12.0461701  52.3647491
   6.1305817  11.9948794  51.1241585  13.5214088  15.0562284  50.0583358
  13.9874540  15.8890276  49.9843661  13.9721588  14.5907266  50.7628617
   3.4635923  23.0588156  58.7721603   4.1645383  23.6924638  58.9250997
   2.9931038  23.4002887  58.0117242  11.5890319  21.4006105  47.0569510
  11.8650163  21.2862700  47.9663384  10.7194818  21.0023590  47.0181683
  11.4930751   7.4242871  54.0974259  10.5793830   7.6547098  54.2656466
  11.9223852   7.5081315  54.9488292  11.2637209  15.6132763  56.5974153
  10.6108659  15.8608670  55.9426606  11.6417589  14.7996901  56.2636631
   8.2244383  25.6492456  50.7002324   8.4066777  24.8314112  51.1630076
   9.0477369  25.8660148  50.2627214   8.5586548  24.5760641  47.9617372
   9.0874315  24.0653096  47.3487534   8.8214768  24.2603171  48.8262905
   1.9142296  25.6275758  50.7215148   1.2452672  26.1121886  50.2379188
   1.7755166  25.8744978  51.6358527   6.0547565  27.6619501  57.3197807
   6.6065873  27.8251123  58.0846892   6.3953758  28.2523939  56.6477831
  10.9058439  22.4880759  63.1746461  11.4498343  23.1010717  62.6801416
  10.3245284  23.0460337  63.6913474   9.1915952  25.6101477  54.3061489
   9.0667092  24.8091217  53.7972434   9.8495043  26.1047670  53.8175459
  11.2550861  23.4110497  55.9341039  10.3081196  23.2915848  55.8619366
  11.6033634  22.5232995  56.0167300   8.2597294  23.2063213  52.1345391
   8.1122256  22.2779921  52.3152961   9.0850787  23.2283304  51.6502466
   2.1259538  11.8581280  47.9925883   2.4655611  12.3867202  47.2704492
   2.5731659  12.1961687  48.7684450  11.8631416  24.0291772  53.2210264
  12.7877963  23.8234633  53.0834715  11.6946719  23.7808173  54.1299605
   4.1127685  10.3555902  46.1919176   4.8336048  10.7337155  45.6882893
   3.4892989  11.0744779  46.2954154   8.2558808  11.0601051  47.1277508
   8.4722423  11.9425689  46.8266336   7.7752875  10.6687264  46.3983150
   2.9958030  14.0186764  53.7048253   2.8502610  14.3327067  54.5972534
   2.5183233  14.6371665  53.1519152   4.8554412  11.0089312  53.7529142
   4.8415981  10.1130405  53.4161440   5.5726841  11.0159976  54.3867428
   6.7080543  11.4426652  55.7982270   6.4498321  12.3643723  55.7966600
   6.1765584  11.0457087  56.4882734  11.6526732  24.5477439  48.5772355
  11.8263610  23.9823862  47.8246208  12.1455623  25.3478334  48.3951845
  17.5066123  17.3113862  50.1962655  17.9497269  16.5621188  49.7981778
  16.6292633  17.3023999  49.8136387  12.6401904  23.8644204  45.6769254
  13.3352809  24.4850897  45.8956568  12.9825055  23.0139555  45.9521631
  14.5393328  21.3143909  47.2056584  15.0644652  21.6531182  46.4805904
  14.4515680  20.3790925  47.0219719   6.2013376  25.2277983  59.3346461
   6.5100503  24.9827130  60.2069161   6.9988858  25.4324622  58.8465331
   6.2233988  27.3815893  51.5651837   5.7838979  26.8892271  52.2584694
   6.9742105  26.8388860  51.3243913   3.6707860  22.9253902  53.6374139
   3.0487870  22.2624607  53.3376367   4.3412727  22.9515034  52.9547787
  14.2287234  21.9476813  62.5107782  13.4382777  21.9300952  61.9712282
  13.9920588  22.4865107  63.2656819  14.3485109  18.7969279  59.8240511
  14.3983114  18.6319287  60.7656034  14.2399032  17.9296538  59.4338392
   3.2321367  21.4757825  47.1132600   3.3809488  22.1593290  46.4599272
   4.0387811  21.4562915  47.6282055  11.6388871  14.7800207  61.1399817
  12.5398734  14.6406672  60.8483815  11.7136846  14.9454662  62.0797995
  15.8503306  21.2166221  60.0682532  15.5588114  21.5796202  60.9045993
  15.2375437  20.5033229  59.8895864  17.0498988  18.7819101  52.5885103
  17.8845879  19.2208905  52.7522663  17.1858117  18.3057754  51.7693348
  14.0990494  16.3398836  58.5362590  14.5744615  16.5326482  57.7281442
  13.1756059  16.3958021  58.2905974   0.9874000  17.5023003  48.1193669
   0.7420042  16.5985333  48.3173879   1.1569915  17.5040153  47.1773147
   6.7316773  23.9705956  44.5844347   6.1590740  24.5896143  44.1314819
   7.3049567  24.5205317  45.1184269  12.7992163  13.2164596  56.7690896
  13.7509586  13.3162693  56.7903120  12.6295613  12.4242864  57.2788980
  10.8206542  10.3020179  56.9550297  10.2256474  10.5825192  56.2596785
  10.5356239  10.7914080  57.7267038   9.9514033  24.2543106  45.7152929
  10.8844706  24.1888667  45.9185805   9.8637246  25.0899373  45.2567462
  12.5802049  23.5708976  42.6756877  12.5015681  23.2368840  43.5692635
  13.4011716  24.0630744  42.6748349  15.2780241  16.4370715  55.8833196
  15.2456561  15.4986716  56.0692879  15.8880864  16.5154752  55.1499020
   7.1163571  15.3066768  41.9260400   8.0622676  15.1772976  41.9948818
   6.7377816  14.5681430  42.4029828  15.4274729  13.2281759  55.9291479
  14.9113778  12.4440215  55.7421408  16.3114678  12.9000475  56.0937998
  13.0885456   6.9722774  51.8887291  12.8910277   6.6637863  52.7730623
  13.6985162   7.6984413  52.0185221  21.0956790  17.4986722  55.0239232
  21.8260179  17.2372010  55.5846936  20.4863736  16.7615444  55.0641300
  19.1772088  15.6394585  55.6213684  18.4505251  15.5050550  55.0130175
  18.7619374  15.9471413  56.4270402   5.3006489  13.2316745  41.8615285
   4.3937944  12.9349857  41.9377998   5.5782470  12.9346563  40.9949571
   8.8459103   6.8531681  49.6383823   9.3990141   7.2727135  50.2973846
   9.0829189   5.9267429  49.6806779   4.0705273  10.0903680  42.0027264
   4.9324437  10.4158578  42.2623081   4.2555617   9.3035176  41.4900330
  12.2237910   8.9632206  49.1462487  11.6436579   9.6217010  48.7640539
  11.9573842   8.1409551  48.7349905  10.6741476   8.3637264  51.3483807
  11.1741254   8.4753799  50.5398126  11.3177084   8.0598317  51.9884616
   0.6596809  20.1620428  56.2720082   1.6140063  20.1304371  56.2050014
   0.4609333  19.7011052  57.0870308   1.2496191  18.7321544  58.8390880
   2.0689080  19.2265623  58.8625717   1.5232999  17.8153513  58.8108447
  11.0062788  11.1232297  48.2018835  10.1188643  11.4081947  47.9839030
  11.4216777  10.9626060  47.3546112  14.3577324  11.1478818  51.9173175
  15.1337714  11.6375270  52.1897791  13.6325458  11.5736872  52.3745044
  16.7949882  11.8606437  52.9747115  17.3894373  11.6202173  52.2640423
  16.8676466  11.1413568  53.6020651  10.1506001  20.8876971  42.2966855
  10.8541851  21.0926974  42.9124511   9.4268650  21.4553733  42.5615939
  10.9803811  16.6386833  48.4169125  10.9239013  17.0955384  47.5776758
  11.5332154  15.8777517  48.2391968  14.7908617  12.4276565  49.2419245
  14.5345552  12.0273200  50.0727453  14.1661485  13.1420359  49.1169384
  19.1020955  15.1672638  51.7490536  18.5420513  15.2365827  52.5222098
  18.4964459  14.9913622  51.0290033   2.1716164  26.6009365  53.5008723
   2.0548548  27.5454797  53.3987413   1.3508610  26.2982926  53.8894522
  12.0592699  21.3259501  44.3465315  12.8938302  20.8940699  44.1642790
  11.8977041  21.1541514  45.2742210  11.7138591  17.8291614  45.7121655
  11.6587395  17.6635885  44.7710099  11.0884646  18.5367647  45.8683844
   3.1970678  27.2537627  56.7164651   4.0997925  27.2861237  57.0331146
   2.9708048  26.3238078  56.7310987   4.9524280  26.0068613  53.3774730
   4.0019911  26.0070475  53.2639102   5.2556766  25.2601348  52.8610764
  20.6876974  31.8429152  54.4420492  21.3255384  31.7235899  53.7383832
  20.5697817  32.7909996  54.5008444  17.4966680  31.7956580  54.3782017
  17.1585191  31.6797645  53.4902552  18.3656448  31.3947745  54.3583023
  13.3553496  33.6492056  50.3678908  12.7918361  33.5581993  49.5995195
  13.2405891  32.8291961  50.8481400  17.9786463  32.9491432  60.3368222
  17.9675104  32.5544230  59.4648726  18.1407102  32.2157504  60.9301994
  10.9017928  35.1443248  53.2063128  11.6939219  34.8034073  52.7909427
  11.1414578  35.2538223  54.1265281  18.9353054  37.3163024  45.6793373
  18.2841034  37.9017104  45.2927386  19.7297417  37.8469219  45.7388410
  12.8608681  34.4052161  46.0780507  13.6339557  33.8581148  45.9393383
  13.2134080  35.2696410  46.2894968  14.6993724  35.7328543  59.2847406
  14.4083590  36.6374174  59.1694073  15.3350708  35.7745071  59.9991476
  15.6249931  33.1105392  55.8748766  16.2213503  32.8861414  55.1605729
  15.6824902  32.3690137  56.4774214  15.1974959  30.5644827  43.7098957
  15.4500480  30.0426349  42.9482420  14.2599518  30.4010973  43.8125640
  20.2418242  29.5680606  51.5173700  21.0281331  29.1500029  51.1664117
  20.5056946  30.4726698  51.6855348  20.4128319  35.0053456  46.2162357
  19.7774152  35.0788082  46.9283262  20.0825726  35.5947055  45.5381436
  25.6426669  29.5055839  52.4206679  26.3751841  28.9355056  52.6544508
  24.8866025  29.1177439  52.8613184  14.9171248  32.4672933  45.9123332
  14.8007506  31.7917837  46.5804416  15.0273508  31.9805307  45.0955485
  17.2602789  31.9283080  49.6170021  16.8960996  31.4013701  50.3282943
  18.1169905  31.5381549  49.4436506  23.1652090  23.2177413  56.8801287
  22.8335414  24.0872824  56.6562502  22.5697703  22.9013697  57.5595318
  16.9008276  26.9572980  44.6131370  17.0682678  27.8253216  44.9801841
  16.7105445  27.1200262  43.6892659  19.6583609  35.4189959  56.2797200
  19.3584332  36.3214998  56.1713007  19.3134669  35.1522142  57.1318353
  13.1096091  31.8703756  52.3133904  12.1846587  31.7379970  52.5211596
  13.3580504  32.6497975  52.8103847  23.0580753  27.9372499  53.9594637
  22.1497630  27.8687908  53.6653398  23.0068349  28.4144444  54.7876463
  16.8797497  29.4130638  45.5978036  16.7597122  29.8587688  46.4363517
  16.1850085  29.7615955  45.0391575  10.4704902  31.5137029  53.1477693
  10.5997283  31.7671508  54.0617105   9.7902353  32.1064737  52.8282349
  14.6404389  42.1834279  49.2468168  14.5628419  43.1342104  49.3256648
  14.0366033  41.8380152  49.9043094  17.1321619  29.3562145  61.9029535
  16.3554953  29.9156065  61.8932399  17.7712182  29.8418928  62.4244405
  24.9242399  26.1388937  55.7372511  24.2816780  26.4321471  55.0912306
  24.4197328  26.0241858  56.5425708  22.5782563  29.8852111  46.4258370
  23.4900419  30.1179497  46.2506068  22.0692210  30.4689155  45.8633449
  15.3867991  32.1647598  61.4647502  16.1282675  32.7032642  61.1882325
  14.6804976  32.7913887  61.6219053  20.8623331  34.3076739  60.0619663
  21.2706687  33.8659149  59.3174295  20.1400592  33.7329366  60.3153856
  17.2154401  29.2449345  57.4353220  18.0615596  29.6688759  57.5787869
  17.1553038  28.5882970  58.1291783  21.1852145  34.8677929  53.8171952
  20.5561008  35.0323643  53.1148020  20.7977807  35.2819539  54.5882916
  25.0641377  35.8032367  51.1716316  24.3792415  36.1831268  50.6213349
  25.1485227  36.4127694  51.9048263  20.3653846  26.9053714  59.0934394
  20.1214778  27.6595774  58.5568669  20.6413777  27.2839061  59.9281641
  22.3192309  33.4492326  57.7711659  22.5309204  34.0924086  57.0946040
  22.2722057  32.6154643  57.3033589  19.9218538  26.0610147  54.6748231
  19.0603017  26.3591400  54.9664969  19.9480972  26.2780546  53.7429264
  16.7380107  34.6052337  51.0822037  17.2018453  34.8840040  50.2926660
  16.4736905  33.7035782  50.8995128  13.6304188  34.1523819  54.0201800
  14.2005545  34.5811087  53.3819285  14.2212300  33.8706403  54.7185986
  15.6748993  30.7275490  47.8911602  16.3773037  31.1796533  48.3585529
  15.3429622  30.0859308  48.5191495  14.1229355  29.3187246  62.2662812
  13.4928015  30.0003527  62.4998208  14.0165443  29.2070328  61.3215950
   9.4174327  28.9859042  53.1928736   8.6273381  29.2416571  52.7168846
   9.9085575  29.8007380  53.2980776  23.4338137  36.3264281  55.9434017
  24.2555580  35.9244469  55.6616698  23.4300540  36.2232516  56.8950132
  11.3689073  29.3503622  50.1512212  10.5720236  29.4622316  50.6695708
  11.1414665  29.6890274  49.2853103  17.1994740  35.8748325  58.0994727
  17.2639173  36.3368732  58.9352899  16.4905664  35.2445690  58.2277037
   7.7012030  29.2389533  55.6243727   7.9520069  30.1236543  55.8901302
   8.2371579  29.0594134  54.8518818  31.5244130  32.6703030  52.2918988
  30.7707838  32.1010428  52.1362992  31.6591671  32.6365694  53.2389623
  16.9142758  37.5416432  47.9673707  16.7788433  38.3867968  48.3958555
  17.4552570  37.7435710  47.2039641  13.4010097  23.6208012  64.6288063
  13.0077043  23.0674211  65.3035707  14.2176238  23.9318591  65.0194580
  10.3672155  35.0591870  48.5401632  10.8796676  35.8535121  48.6907197
  11.0194868  34.3618161  48.4735234  12.1767040  38.1757627  50.6224386
  12.3533668  39.0975591  50.4345370  12.9723873  37.8616046  51.0518765
  16.3178058  25.0365891  62.2208319  17.0587772  25.6373044  62.1412782
  16.5495981  24.2943529  61.6626362  11.4619396  30.2222258  60.4986549
  11.3472912  29.3207516  60.7993648  10.6063914  30.4685955  60.1471365
  18.5411234  38.1639999  62.0974049  18.0975088  37.3776377  61.7794954
  19.2028448  38.3519149  61.4317940  13.2998355  39.6935800  56.6234728
  13.8505781  39.5652864  55.8511722  12.4609831  39.9930689  56.2729621
  20.6392472  38.4442799  60.1255451  20.6210948  39.2651680  59.6335720
  21.5612392  38.3196874  60.3505592  17.0965526  35.9586928  60.9678959
  17.6293863  35.1975216  60.7378267  16.5679608  35.6660580  61.7103114
  20.2635221  21.0646994  56.4972601  19.9199491  21.9548636  56.4211711
  20.6314184  20.8748652  55.6342186   8.3321072  33.3880525  49.3161203
   9.1696294  33.7977533  49.0994911   8.5099340  32.4479967  49.2861397
  20.2285504  31.0555605  45.0045036  19.7132128  31.8260210  45.2433423
  19.9562813  30.3820741  45.6278097  17.8132615  25.9005306  50.0630274
  16.9574212  25.5112156  49.8835913  18.2259567  25.9797267  49.2030060
  19.3431762  23.4351649  54.4621834  18.8396557  23.3981784  53.6489639
  19.6362369  24.3444392  54.5218491  15.5874648  23.5190379  53.4688016
  16.4527644  23.3233188  53.1093905  15.6552157  23.2900731  54.3957373
  25.2019778  33.8087960  46.9398209  24.4249221  33.4699119  46.4953372
  25.8811259  33.8140583  46.2653174  20.0171807  28.9282697  46.8304817
  19.7121943  29.2428846  47.6814960  20.9702249  29.0064117  46.8732150
  18.4618239  35.0872921  48.4797771  17.9339601  34.3525680  48.1671009
  17.9605742  35.8647597  48.2337739  23.4411085  33.2821941  53.5964817
  22.7834760  33.9721203  53.6844946  24.2451484  33.6718373  53.9398804
  13.1936967  25.7492587  50.8404383  13.7680719  25.5267768  50.1077576
  13.7807949  25.8181281  51.5932984  22.2516544  31.6366314  51.6468759
  22.7648426  32.2696306  52.1490469  22.9017768  31.0367509  51.2812119
  13.5206554  27.7797048  44.8600268  12.6843866  28.1171734  45.1809543
  13.3811324  27.6446028  43.9227405  15.4959634  22.6233836  49.5679452
  14.8424047  22.3082853  48.9436067  15.4540109  22.0009576  50.2939275
  16.6070839  32.9053131  41.4832744  15.6997901  32.6742384  41.6823893
  17.1041871  32.1090750  41.6706726  19.5138918  41.6150638  44.4029430
  18.8400617  41.9182335  45.0114388  19.9004740  42.4179718  44.0534887
  18.7297375  29.1115769  53.8927100  17.8119936  29.3330716  53.7348788
  19.1457518  29.1862080  53.0338807  19.5132423  30.5107185  49.0229780
  20.2604242  31.0228582  48.7136902  19.7824012  30.1891238  49.8834174
  17.7859073  33.0065726  46.0056734  16.8770292  32.7224759  46.1029204
  17.8154157  33.4264804  45.1460041  23.0178340  36.6172315  49.7747902
  22.5640667  35.7763225  49.8313092  22.3872307  37.2533714  50.1122682
  21.9611260  27.5464301  51.0048569  21.2234017  27.0341687  51.3358812
  22.2138033  27.1064683  50.1931846  21.4611279  38.4548812  50.7097720
  21.7534254  39.0153869  49.9910086  21.9709900  38.7477373  51.4650879
  22.0622887  20.3240553  51.5990339  22.3681764  19.4637917  51.3116254
  22.7875492  20.9158173  51.3989332   8.3547243  30.7271240  49.9871936
   8.1571643  30.1340601  49.2623003   7.7993907  30.4223450  50.7047875
  16.3343967  30.6194346  52.1066530  16.3892577  29.6668183  52.0309006
  15.5235169  30.7753785  52.5907828  17.4835161  34.5474469  43.3444813
  17.0454591  33.8310328  42.8850450  18.2245601  34.7750584  42.7829904
  14.2736327  29.2371406  49.8656908  13.4604192  29.5365577  50.2722101
  14.7695321  28.8427095  50.5831391  16.4244905  39.2329163  51.7991173
  16.3821083  39.4590009  50.8699705  17.3407603  38.9992538  51.9476974
  19.8710538  29.7013231  58.6971802  20.2259926  29.9284704  59.5566268
  20.5182670  30.0331607  58.0749058  25.6008275  32.8231666  49.4021131
  25.4626174  33.0133262  48.4742321  25.2444494  33.5851049  49.8589183
  13.7650402  26.8089762  55.4818143  14.4049781  26.6678521  54.7841107
  12.9327932  26.5224275  55.1056745  25.6277655  34.8908193  54.4132403
  26.0614162  34.7983483  55.2615457  26.3409236  34.8665694  53.7752419
  14.5410705  36.1092192  51.5953136  15.3351304  35.6142512  51.3935711
  13.8302398  35.5810055  51.2320841  19.3605550  38.4910288  55.9465503
  19.4142572  39.0601224  56.7143219  18.4920331  38.6612173  55.5819541
  10.8493469  30.2535274  47.6712889   9.9191057  30.1919729  47.8882851
  10.9450941  29.7311227  46.8749530  10.7679018  26.7790087  50.2591130
  11.0285835  27.6935420  50.1500291  11.5896190  26.3114529  50.4087743
  12.2403943  28.1927844  57.4289955  12.9126997  27.9845206  56.7802604
  11.4133730  27.9949930  56.9895187  26.4893205  34.9331894  56.9465288
  26.6829095  35.8377705  57.1924563  26.3893823  34.4739313  57.7803873
  18.1429515  24.8189785  59.4455616  17.4957430  25.5179734  59.3520092
  18.9130531  25.2525929  59.8131864  21.5508313  35.0838637  62.5206169
  21.3993820  34.8549189  61.6036253  21.5412993  36.0409238  62.5337514
  18.3193650  32.6570550  57.5052435  19.2485710  32.8081709  57.3321403
  17.8984680  32.7454570  56.6501082  17.1181981  36.6821214  55.2750973
  16.9793067  36.3139998  56.1476911  16.3296578  37.1968853  55.1034931
  17.7130133  41.7830310  46.6176509  17.8881889  41.3118354  47.4322132
  17.0262921  42.4096077  46.8457770  18.6687197  36.0602817  52.6639811
  18.3337029  36.0203587  53.5597461  18.1691142  35.3947533  52.1910221
  12.6431441  31.4670447  58.1892392  12.5051238  30.7350686  58.7903931
  13.5536364  31.3779347  57.9076580  21.6046388  33.4058851  42.9376870
  20.9875559  32.6805679  42.8409923  21.1362877  34.1668211  42.5943945
  15.2713741  31.1790406  57.6776072  15.9813360  30.5383598  57.6362690
  15.2283049  31.4303301  58.6002252  23.2600520  38.1157759  60.5982651
  23.2013066  37.4316980  59.9313234  23.6620038  38.8576749  60.1463277
  13.9842675  28.1655624  59.4971711  13.4480032  27.7146362  60.1493307
  13.3959384  28.3001533  58.7542175  12.2791219  44.9319673  53.3916370
  12.5187817  45.5638197  54.0695388  11.4360415  44.5807713  53.6781729
  13.3944934  27.6244275  42.0598175  12.5174400  27.5033076  41.6960421
  13.8702687  26.8330354  41.8077063  23.2617927  36.0797343  58.8296630
  22.3744706  35.7423265  58.9523029  23.8316478  35.3480375  59.0665396
   4.9147074  32.4121435  52.1539682   5.6018114  32.0983165  51.5660697
   4.7595203  33.3162800  51.8806933   9.7181796  27.3011632  56.5824706
   9.6339985  26.6937301  55.8475115   8.8964503  27.7920650  56.5834202
  16.7919081  40.7398796  55.7957874  16.7189252  41.5453767  56.3077178
  16.3496474  40.9390762  54.9705895  16.5808860  39.9770566  49.3060695
  15.7976382  40.5192246  49.3998920  17.2801605  40.4944545  49.7054936
  19.8905510  25.7865195  51.9494901  20.3874210  25.0335158  51.6295971
  19.1192492  25.8229512  51.3838110  27.7435268  31.4905561  53.5913192
  27.7325144  32.3730276  53.2207125  26.8752647  31.1377112  53.3967729
  19.2517764  40.6385630  57.9516032  19.9645736  41.2733095  57.8791934
  18.7607793  40.7349496  57.1356034  20.9735291  34.5436882  49.5233324
  20.0391570  34.6638345  49.3538028  21.1511959  33.6409349  49.2593334
  16.4740479  27.9282578  51.6766585  16.1038267  27.3753619  52.3647491
  16.9699571  27.3240712  51.1241585  24.3607842  30.3854202  50.0583358
  24.8268295  31.2182193  49.9843661  24.8115343  29.9199183  50.7628617
  14.3029678  38.3880073  58.7721603  15.0039137  39.0216556  58.9250997
  13.8324793  38.7294805  58.0117242  22.4284073  36.7298023  47.0569510
  22.7043917  36.6154618  47.9663384  21.5588572  36.3315508  47.0181683
  22.3324505  22.7534789  54.0974259  21.4187585  22.9839016  54.2656466
  22.7617607  22.8373233  54.9488292  22.1030964  30.9424681  56.5974153
  21.4502414  31.1900588  55.9426606  22.4811343  30.1288819  56.2636631
  19.0638137  40.9784374  50.7002324  19.2460532  40.1606030  51.1630076
  19.8871123  41.1952066  50.2627214  19.3980303  39.9052559  47.9617372
  19.9268069  39.3945014  47.3487534  19.6608523  39.5895089  48.8262905
  18.1518537  31.6844492  63.0840191  17.4759174  31.5838621  63.7542566
  18.9746170  31.5283705  63.5476188   9.8997396  37.9216428  55.7052706
  10.4850832  37.1760116  55.8380610   9.7022234  38.2320385  56.5889370
  12.7536051  40.9567676  50.7215148  12.0846426  41.4413803  50.2379188
  12.6148921  41.2036896  51.6358527   4.4915050  30.4922028  54.4257149
   4.5299150  29.9585619  55.2194267   3.9855343  29.9657234  53.8068126
  16.8941319  42.9911419  57.3197807  17.4459627  43.1543041  58.0846892
  17.2347513  43.5815857  56.6477831  11.8705813  25.3386569  57.9219691
  11.9347139  26.2001400  57.5097089  11.8072933  24.7260571  57.1892050
  11.3458085  27.4109702  61.5692726  11.9730124  27.0286779  62.1830250
  10.4886004  27.1923903  61.9348418  21.7452194  37.8172677  63.1746461
  22.2892098  38.4302635  62.6801416  21.1639039  38.3752255  63.6913474
   8.1223628  29.2186131  47.5011080   8.4177069  28.3096809  47.4478134
   7.2211664  29.1973870  47.1792083  20.0309707  40.9393395  54.3061489
  19.9060846  40.1383135  53.7972434  20.6888798  41.4339588  53.8175459
  11.6517875  27.2942127  53.4838629  10.9304461  27.9078095  53.3446102
  12.4411131  27.8299892  53.4055275  22.0944615  38.7402415  55.9341039
  21.1474951  38.6207766  55.8619366  22.4427388  37.8524913  56.0167300
  14.4544188  24.6296554  59.7579281  14.9778590  24.8758850  60.5205590
  14.2356522  25.4616588  59.3382418   9.8511470  26.9000228  47.6250405
   9.5224176  26.0197607  47.4425511  10.2050840  26.8447897  48.5126795
  19.0991048  38.5355131  52.1345391  18.9516011  37.6071838  52.3152961
  19.9244542  38.5575222  51.6502466  12.9653293  27.1873198  47.9925883
  13.3049365  27.7159119  47.2704492  13.4125413  27.5253604  48.7684450
  22.7025170  39.3583690  53.2210264  23.6271718  39.1526551  53.0834715
  22.5340474  39.1100091  54.1299605  15.6596734  25.5710249  57.4428951
  15.3193554  24.7718062  57.8449631  14.9535740  25.8711960  56.8705784
  16.3113205  22.6559561  55.8956274  17.1339275  22.1820039  55.7735165
  16.5551269  23.4350045  56.3954961  14.9521440  25.6847820  46.1919176
  15.6729802  26.0629072  45.6882893  14.3286744  26.4036696  46.2954154
  19.0952563  26.3892969  47.1277508  19.3116177  27.2717607  46.8266336
  18.6146630  25.9979182  46.3983150  13.8351784  29.3478682  53.7048253
  13.6896365  29.6618985  54.5972534  13.3576988  29.9663582  53.1519152
  15.6948167  26.3381230  53.7529142  15.6809736  25.4422323  53.4161440
  16.4120595  26.3451894  54.3867428  17.5474298  26.7718570  55.7982270
  17.2892076  27.6935641  55.7966600  17.0159338  26.3749005  56.4882734
  22.4920486  39.8769357  48.5772355  22.6657364  39.3115780  47.8246208
  22.9849378  40.6770252  48.3951845   8.3097446  31.8884026  56.6435914
   7.7650914  32.6643834  56.7756188   9.1876796  32.2354831  56.4855035
  15.0985063  25.2195610  49.0216713  15.2200974  24.2912256  49.2207600
  14.8087105  25.2334296  48.1095028  17.9676253  22.9050521  52.1583432
  17.9897950  22.9689854  51.2035412  18.3844312  22.0655029  52.3523939
  28.3459878  32.6405780  50.1962655  28.7891024  31.8913105  49.7981778
  27.4686388  32.6315916  49.8136387  23.4795659  39.1936122  45.6769254
  24.1746564  39.8142814  45.8956568  23.8218809  38.3431473  45.9521631
   9.0963468  31.0153923  59.5366071   8.3545204  31.1636558  60.1230701
   8.7756212  31.2762188  58.6732820  17.0407131  40.5569901  59.3346461
  17.3494257  40.3119048  60.2069161  17.8382613  40.7616539  58.8465331
  17.0627743  42.7107810  51.5651837  16.6232733  42.2184189  52.2584694
  17.8135860  42.1680778  51.3243913   9.5420082  38.9019351  51.5676466
  10.3678102  38.6023123  51.1875109   9.1914134  38.1326974  52.0166254
  14.5101615  38.2545819  53.6374139  13.8881624  37.5916524  53.3376367
  15.1806482  38.2806951  52.9547787   7.7428687  36.8205678  52.5265399
   6.9060595  36.3927852  52.3449400   7.7152332  37.0138121  53.4636190
  14.5826142  26.7327607  63.2306645  14.6314298  27.6089730  62.8484415
  15.1248657  26.1905001  62.6578288  25.0680988  37.2768731  62.5107782
  24.2776532  37.2592870  61.9712282  24.8314343  37.8157024  63.2656819
  25.1878863  34.1261197  59.8240511  25.2376868  33.9611205  60.7656034
  25.0792787  33.2588456  59.4338392  14.0715122  36.8049743  47.1132600
  14.2203242  37.4885207  46.4599272  14.8781565  36.7854833  47.6282055
  22.4782626  30.1092125  61.1399817  23.3792488  29.9698590  60.8483815
  22.5530600  30.2746580  62.0797995  16.8125431  27.4858980  59.9853004
  15.9428740  27.7792546  59.7135592  17.0484911  28.0699425  60.7060267
  26.6897060  36.5458139  60.0682532  26.3981868  36.9088119  60.9045993
  26.0769191  35.8325147  59.8895864  27.8892742  34.1111018  52.5885103
  28.7239634  34.5500822  52.7522663  28.0251871  33.6349672  51.7693348
  24.9384248  31.6690753  58.5362590  25.4138370  31.8618400  57.7281442
  24.0149814  31.7249939  58.2905974  11.8267755  32.8314920  48.1193669
  11.5813797  31.9277250  48.3173879  11.9963669  32.8332071  47.1773147
  19.5164465  23.7038597  57.5018424  20.0346409  24.4399624  57.1764913
  19.1619598  24.0102590  58.3365183  11.0963402  28.5643278  45.6179830
  10.4032647  28.6387633  44.9619866  10.8515154  27.8003622  46.1401347
  19.7677059  20.1238879  53.0219321  20.0478813  19.4562068  53.6479747
  20.5527666  20.3167975  52.5093985  17.5710527  39.2997873  44.5844347
  16.9984494  39.9188060  44.1314819  18.1443321  39.8497235  45.1184269
  23.6385917  28.5456513  56.7690896  24.5903340  28.6454611  56.7903120
  23.4689368  27.7534782  57.2788980  21.6600297  25.6312097  56.9550297
  21.0650229  25.9117109  56.2596785  21.3749993  26.1205997  57.7267038
  20.7907787  39.5835023  45.7152929  21.7238460  39.5180585  45.9185805
  20.7031000  40.4191290  45.2567462  23.4195804  38.9000894  42.6756877
  23.3409435  38.5660757  43.5692635  24.2405471  39.3922662  42.6748349
  26.1173995  31.7662633  55.8833196  26.0850315  30.8278634  56.0692879
  26.7274619  31.8446670  55.1499020  17.9557326  30.6358686  41.9260400
  18.9016431  30.5064894  41.9948818  17.5771571  29.8973348  42.4029828
  26.2668484  28.5573676  55.9291479  25.7507532  27.7732133  55.7421408
  27.1508432  28.2292393  56.0937998  23.9279210  22.3014692  51.8887291
  23.7304032  21.9929780  52.7730623  24.5378916  23.0276331  52.0185221
  31.9350545  32.8278640  55.0239232  32.6653933  32.5663928  55.5846936
  31.3257490  32.0907362  55.0641300  30.0165842  30.9686502  55.6213684
  29.2899006  30.8342467  55.0130175  29.6013129  31.2763331  56.4270402
  17.8396018  34.6876432  63.3861057  18.7599028  34.8655031  63.5801103
  17.8045601  33.7432477  63.2340756  16.1400243  28.5608662  41.8615285
  15.2331698  28.2641775  41.9377998  16.4176224  28.2638480  40.9949571
   7.0578183  29.8815026  52.3114331   6.7380968  29.0280334  52.0188705
   6.5111612  30.0963604  53.0672299  10.8358091  32.5977467  56.0283838
  11.0544101  33.5294575  56.0471872  11.2483865  32.2385441  56.8138642
  17.7562309  23.1045552  48.0159526  16.9463037  22.7592637  48.3914772
  18.4446726  22.7953096  48.6047138  19.6852857  22.1823599  49.6383823
  20.2383896  22.6019052  50.2973846  19.9222943  21.2559347  49.6806779
  15.7085956  28.1710673  65.4186587  15.6082683  29.1205030  65.3498678
  15.4907498  27.8428911  64.5462657  14.9099028  25.4195598  42.0027264
  15.7718192  25.7450496  42.2623081  15.0949372  24.6327094  41.4900330
   6.9266443  33.5017937  54.2807453   6.2329915  33.0871890  53.7677407
   7.6739434  33.5438474  53.6840872  23.0631664  24.2924124  49.1462487
  22.4830333  24.9508928  48.7640539  22.7967597  23.4701469  48.7349905
  21.5135231  23.6929182  51.3483807  22.0135009  23.8045716  50.5398126
  22.1570838  23.3890235  51.9884616  15.5717226  31.6007811  64.2351648
  15.0884308  32.4008172  64.4415537  15.6578165  31.6115756  63.2819092
   8.8403186  33.4336191  52.1573468   8.8173874  33.5323878  51.2055351
   9.1503822  34.2801342  52.4790634  11.4990564  35.4912346  56.2720082
  12.4533817  35.4596288  56.2050014  11.3003087  35.0302970  57.0870308
  12.0889946  34.0613462  58.8390880  12.9082835  34.5557541  58.8625717
  12.3626754  33.1445430  58.8108447  21.8456542  26.4524214  48.2018835
  20.9582397  26.7373865  47.9839030  22.2610531  26.2917978  47.3546112
  25.1971078  26.4770735  51.9173175  25.9731468  26.9667188  52.1897791
  24.4719212  26.9028790  52.3745044  27.6343637  27.1898355  52.9747115
  28.2288128  26.9494091  52.2640423  27.7070221  26.4705485  53.6020651
   9.8540793  41.0331966  53.2890280   9.7195261  40.2732366  52.7228278
   9.4372855  41.7572865  52.8219069  20.9899756  36.2168889  42.2966855
  21.6935606  36.4218892  42.9124511  20.2662404  36.7845651  42.5615939
  21.8197566  31.9678750  48.4169125  21.7632767  32.4247302  47.5776758
  22.3725908  31.2069435  48.2391968  25.6302372  27.7568482  49.2419245
  25.3739306  27.3565118  50.0727453  25.0055240  28.4712276  49.1169384
  29.9414710  30.4964556  51.7490536  29.3814268  30.5657745  52.5222098
  29.3358213  30.3205540  51.0290033  13.0109919  41.9301283  53.5008723
  12.8942303  42.8746715  53.3987413  12.1902365  41.6274844  53.8894522
  22.8986453  36.6551418  44.3465315  23.7332057  36.2232617  44.1642790
  22.7370796  36.4833432  45.2742210  22.5532345  33.1583532  45.7121655
  22.4981149  32.9927803  44.7710099  21.9278400  33.8659565  45.8683844
   7.3424860  28.3951596  59.5383077   7.9883724  27.8850550  60.0270302
   7.1342011  29.1320278  60.1126502  19.8678252  35.4632443  65.0375217
  20.7369412  35.6373096  64.6761852  19.3885004  36.2826860  64.9150947
  15.8628471  22.6591641  45.2906973  15.8507141  23.6033481  45.4475244
  16.7551893  22.4761786  44.9966434  14.0364433  42.5829545  56.7164651
  14.9391679  42.6153155  57.0331146  13.8101803  41.6529995  56.7310987
  15.7918035  41.3360531  53.3774730  14.8413666  41.3362393  53.2639102
  16.0950521  40.5893266  52.8610764  19.6780590  19.2534417  49.5452910
  18.9112986  18.6992904  49.6909592  20.0891295  19.3256286  50.4067061
  11.6822351  25.5419213  63.6358091  12.5453813  25.1856018  63.8461416
  11.1087762  25.2033108  64.3233495  31.5270728  47.1721069  54.4420492
  32.1649138  47.0527817  53.7383832  31.4091571  48.1201913  54.5008444
  28.3360434  47.1248498  54.3782017  27.9978946  47.0089562  53.4902552
  29.2050203  46.7239663  54.3583023  24.1947250  48.9783974  50.3678908
  23.6312115  48.8873911  49.5995195  24.0799645  48.1583878  50.8481400
  28.8180217  48.2783349  60.3368222  28.8068858  47.8836148  59.4648726
  28.9800857  47.5449422  60.9301994  21.7411682  50.4735166  53.2063128
  22.5332974  50.1325990  52.7909427  21.9808332  50.5830141  54.1265281
  29.7746809  52.6454942  45.6793373  29.1234789  53.2309022  45.2927386
  30.5691172  53.1761137  45.7388410  23.7002436  49.7344079  46.0780507
  24.4733312  49.1873066  45.9393383  24.0527835  50.5988328  46.2894968
  25.5387479  51.0620461  59.2847406  25.2477345  51.9666092  59.1694073
  26.1744463  51.1036989  59.9991476  26.4643685  48.4397310  55.8748766
  27.0607258  48.2153332  55.1605729  26.5218657  47.6982055  56.4774214
  26.0368714  45.8936745  43.7098957  26.2894234  45.3718266  42.9482420
  25.0993273  45.7302890  43.8125640  31.0811997  44.8972523  51.5173700
  31.8675086  44.4791946  51.1664117  31.3450701  45.8018615  51.6855348
  31.2522074  50.3345374  46.2162357  30.6167907  50.4080000  46.9283262
  30.9219480  50.9238972  45.5381436  36.4820424  44.8347756  52.4206679
  37.2145596  44.2646973  52.6544508  35.7259779  44.4469357  52.8613184
  25.7565003  47.7964851  45.9123332  25.6401261  47.1209754  46.5804416
  25.8667262  47.3097225  45.0955485  28.0996543  47.2574998  49.6170021
  27.7354751  46.7305619  50.3282943  28.9563659  46.8673467  49.4436506
  34.0045844  38.5469331  56.8801287  33.6729169  39.4164742  56.6562502
  33.4091457  38.2305615  57.5595318  27.7402030  42.2864898  44.6131370
  27.9076433  43.1545134  44.9801841  27.5499200  42.4492179  43.6892659
  30.4977364  50.7481877  56.2797200  30.1978087  51.6506915  56.1713007
  30.1528423  50.4814060  57.1318353  23.9489845  47.1995673  52.3133904
  23.0240342  47.0671888  52.5211596  24.1974258  47.9789893  52.8103847
  33.8974507  43.2664417  53.9594637  32.9891385  43.1979825  53.6653398
  33.8462103  43.7436362  54.7876463  27.7191251  44.7422555  45.5978036
  27.5990877  45.1879606  46.4363517  27.0243840  45.0907873  45.0391575
  21.3098656  46.8428947  53.1477693  21.4391037  47.0963426  54.0617105
  20.6296107  47.4356655  52.8282349  25.4798143  57.5126197  49.2468168
  25.4022173  58.4634022  49.3256648  24.8759787  57.1672069  49.9043094
  27.9715373  44.6854062  61.9029535  27.1948707  45.2447983  61.8932399
  28.6105936  45.1710845  62.4244405  35.7636154  41.4680855  55.7372511
  35.1210534  41.7613388  55.0912306  35.2591082  41.3533776  56.5425708
  33.4176317  45.2144028  46.4258370  34.3294174  45.4471415  46.2506068
  32.9085965  45.7981073  45.8633449  26.2261746  47.4939516  61.4647502
  26.9676430  48.0324560  61.1882325  25.5198731  48.1205804  61.6219053
  31.7017085  49.6368656  60.0619663  32.1100441  49.1951067  59.3174295
  30.9794347  49.0621284  60.3153856  28.0548155  44.5741263  57.4353220
  28.9009350  44.9980677  57.5787869  27.9946793  43.9174887  58.1291783
  32.0245900  50.1969847  53.8171952  31.3954762  50.3615561  53.1148020
  31.6371562  50.6111456  54.5882916  35.9035132  51.1324285  51.1716316
  35.2186170  51.5123186  50.6213349  35.9878981  51.7419611  51.9048263
  31.2047601  42.2345631  59.0934394  30.9608532  42.9887692  58.5568669
  31.4807531  42.6130979  59.9281641  33.1586063  48.7784244  57.7711659
  33.3702959  49.4216004  57.0946040  33.1115812  47.9446560  57.3033589
  30.7612292  41.3902064  54.6748231  29.8996771  41.6883318  54.9664969
  30.7874727  41.6072463  53.7429264  27.5773862  49.9344255  51.0822037
  28.0412207  50.2131958  50.2926660  27.3130660  49.0327699  50.8995128
  24.4697943  49.4815736  54.0201800  25.0399300  49.9103005  53.3819285
  25.0606055  49.1998321  54.7185986  26.5142748  46.0567407  47.8911602
  27.2166791  46.5088451  48.3585529  26.1823376  45.4151226  48.5191495
  24.9623109  44.6479164  62.2662812  24.3321770  45.3295445  62.4998208
  24.8559197  44.5362246  61.3215950  20.2568082  44.3150960  53.1928736
  19.4667136  44.5708488  52.7168846  20.7479329  45.1299298  53.2980776
  34.2731891  51.6556199  55.9434017  35.0949335  51.2536386  55.6616698
  34.2694294  51.5524433  56.8950132  22.2082827  44.6795539  50.1512212
  21.4113990  44.7914233  50.6695708  21.9808419  45.0182191  49.2853103
  28.0388495  51.2040242  58.0994727  28.1032927  51.6660650  58.9352899
  27.3299419  50.5737607  58.2277037  18.5405785  44.5681450  55.6243727
  18.7913823  45.4528460  55.8901302  19.0765333  44.3886052  54.8518818
  42.3637884  47.9994948  52.2918988  41.6101593  47.4302346  52.1362992
  42.4985426  47.9657612  53.2389623  27.7536512  52.8708350  47.9673707
  27.6182187  53.7159886  48.3958555  28.2946325  53.0727628  47.2039641
  24.2403852  38.9499930  64.6288063  23.8470798  38.3966128  65.3035707
  25.0569992  39.2610508  65.0194580  21.2065910  50.3883788  48.5401632
  21.7190430  51.1827038  48.6907197  21.8588623  49.6910078  48.4735234
  23.0160794  53.5049544  50.6224386  23.1927423  54.4267509  50.4345370
  23.8117628  53.1907963  51.0518765  27.1571813  40.3657809  62.2208319
  27.8981526  40.9664962  62.1412782  27.3889736  39.6235447  61.6626362
  22.3013151  45.5514176  60.4986549  22.1866666  44.6499433  60.7993648
  21.4457669  45.7977873  60.1471365  29.3804989  53.4931916  62.0974049
  28.9368843  52.7068295  61.7794954  30.0422202  53.6811067  61.4317940
  24.1392110  55.0227718  56.6234728  24.6899535  54.8944781  55.8511722
  23.3003586  55.3222607  56.2729621  31.4786227  53.7734716  60.1255451
  31.4604702  54.5943597  59.6335720  32.4006147  53.6488792  60.3505592
  27.9359281  51.2878846  60.9678959  28.4687618  50.5267134  60.7378267
  27.4073362  50.9952498  61.7103114  31.1028976  36.3938912  56.4972601
  30.7593245  37.2840553  56.4211711  31.4707939  36.2040569  55.6342186
  19.1714827  48.7172442  49.3161203  20.0090049  49.1269451  49.0994911
  19.3493094  47.7771884  49.2861397  31.0679259  46.3847523  45.0045036
  30.5525882  47.1552128  45.2433423  30.7956567  45.7112659  45.6278097
  28.6526370  41.2297224  50.0630274  27.7967966  40.8404074  49.8835913
  29.0653321  41.3089184  49.2030060  30.1825516  38.7643567  54.4621834
  29.6790312  38.7273702  53.6489639  30.4756123  39.6736310  54.5218491
  26.4268402  38.8482297  53.4688016  27.2921399  38.6525105  53.1093905
  26.4945911  38.6192648  54.3957373  36.0413533  49.1379878  46.9398209
  35.2642976  48.7991037  46.4953372  36.7205014  49.1432501  46.2653174
  30.8565562  44.2574615  46.8304817  30.5515697  44.5720764  47.6814960
  31.8096004  44.3356035  46.8732150  29.3011994  50.4164838  48.4797771
  28.7733355  49.6817598  48.1671009  28.7999496  51.1939515  48.2337739
  34.2804840  48.6113859  53.5964817  33.6228514  49.3013120  53.6844946
  35.0845239  49.0010291  53.9398804  24.0330721  41.0784505  50.8404383
  24.6074473  40.8559686  50.1077576  24.6201704  41.1473199  51.5932984
  33.0910298  46.9658231  51.6468759  33.6042180  47.5988223  52.1490469
  33.7411522  46.3659427  51.2812119  24.3600308  43.1088966  44.8600268
  23.5237621  43.4463652  45.1809543  24.2205078  42.9737945  43.9227405
  26.3353389  37.9525753  49.5679452  25.6817801  37.6374771  48.9436067
  26.2933863  37.3301494  50.2939275  27.4464594  48.2345049  41.4832744
  26.5391656  48.0034302  41.6823893  27.9435626  47.4382668  41.6706726
  30.3532673  56.9442556  44.4029430  29.6794371  57.2474253  45.0114388
  30.7398495  57.7471636  44.0534887  29.5691129  44.4407687  53.8927100
  28.6513691  44.6622634  53.7348788  29.9851273  44.5153997  53.0338807
  30.3526177  45.8399103  49.0229780  31.0997996  46.3520500  48.7136902
  30.6217767  45.5183155  49.8834174  28.6252827  48.3357643  46.0056734
  27.7164047  48.0516676  46.1029204  28.6547911  48.7556722  45.1460041
  33.8572095  51.9464233  49.7747902  33.4034422  51.1055143  49.8313092
  33.2266061  52.5825631  50.1122682  32.8005014  42.8756219  51.0048569
  32.0627771  42.3633605  51.3358812  33.0531788  42.4356601  50.1931846
  32.3005034  53.7840730  50.7097720  32.5928008  54.3445787  49.9910086
  32.8103655  54.0769291  51.4650879  19.1940998  46.0563158  49.9871936
  18.9965397  45.4632518  49.2623003  18.6387662  45.7515368  50.7047875
  27.1737721  45.9486264  52.1066530  27.2286331  44.9960100  52.0309006
  26.3628923  46.1045703  52.5907828  28.3228915  49.8766387  43.3444813
  27.8848345  49.1602246  42.8850450  29.0639356  50.1042502  42.7829904
  25.1130081  44.5663324  49.8656908  24.2997947  44.8657494  50.2722101
  25.6089075  44.1719013  50.5831391  27.2638659  54.5621081  51.7991173
  27.2214838  54.7881927  50.8699705  28.1801358  54.3284455  51.9476974
  30.7104293  45.0305148  58.6971802  31.0653681  45.2576621  59.5566268
  31.3576424  45.3623525  58.0749058  36.4402030  48.1523584  49.4021131
  36.3019928  48.3425180  48.4742321  36.0838249  48.9142967  49.8589183
  24.6044156  42.1381679  55.4818143  25.2443535  41.9970438  54.7841107
  23.7721687  41.8516193  55.1056745  36.4671409  50.2200111  54.4132403
  36.9007916  50.1275400  55.2615457  37.1802990  50.1957612  53.7752419
  25.3804460  51.4384110  51.5953136  26.1745058  50.9434430  51.3935711
  24.6696152  50.9101973  51.2320841  30.1999304  53.8202205  55.9465503
  30.2536327  54.3893142  56.7143219  29.3314086  53.9904090  55.5819541
  21.6887223  45.5827191  47.6712889  20.7584811  45.5211647  47.8882851
  21.7844695  45.0603144  46.8749530  21.6072772  42.1082004  50.2591130
  21.8679590  43.0227338  50.1500291  22.4289945  41.6406447  50.4087743
  23.0797698  43.5219761  57.4289955  23.7520751  43.3137124  56.7802604
  22.2527484  43.3241847  56.9895187  37.3286959  50.2623812  56.9465288
  37.5222849  51.1669622  57.1924563  37.2287577  49.8031231  57.7803873
  28.9823270  40.1481702  59.4455616  28.3351185  40.8471652  59.3520092
  29.7524285  40.5817846  59.8131864  32.3902068  50.4130555  62.5206169
  32.2387574  50.1841106  61.6036253  32.3806747  51.3701156  62.5337514
  29.1587404  47.9862467  57.5052435  30.0879464  48.1373627  57.3321403
  28.7378434  48.0746488  56.6501082  27.9575736  52.0113132  55.2750973
  27.8186822  51.6431916  56.1476911  27.1690332  52.5260771  55.1034931
  28.5523888  57.1122228  46.6176509  28.7275644  56.6410271  47.4322132
  27.8656676  57.7387994  46.8457770  29.5080951  51.3894734  52.6639811
  29.1730784  51.3495504  53.5597461  29.0084897  50.7239450  52.1910221
  23.4825195  46.7962364  58.1892392  23.3444993  46.0642603  58.7903931
  24.3930118  46.7071265  57.9076580  32.4440143  48.7350769  42.9376870
  31.8269313  48.0097597  42.8409923  31.9756631  49.4960129  42.5943945
  26.1107496  46.5082324  57.6776072  26.8207114  45.8675516  57.6362690
  26.0676804  46.7595219  58.6002252  34.0994274  53.4449677  60.5982651
  34.0406821  52.7608897  59.9313234  34.5013793  54.1868667  60.1463277
  24.8236430  43.4947542  59.4971711  24.2873787  43.0438280  60.1493307
  24.2353138  43.6293450  58.7542175  23.1184973  60.2611591  53.3916370
  23.3581571  60.8930115  54.0695388  22.2754170  59.9099631  53.6781729
  24.2338689  42.9536193  42.0598175  23.3568155  42.8324994  41.6960421
  24.7096442  42.1622271  41.8077063  34.1011682  51.4089261  58.8296630
  33.2138460  51.0715183  58.9523029  34.6710233  50.6772292  59.0665396
  15.7540829  47.7413353  52.1539682  16.4411869  47.4275083  51.5660697
  15.5988957  48.6454717  51.8806933  20.5575551  42.6303549  56.5824706
  20.4733740  42.0229219  55.8475115  19.7358257  43.1212568  56.5834202
  27.6312835  56.0690713  55.7957874  27.5583006  56.8745685  56.3077178
  27.1890228  56.2682679  54.9705895  27.4202615  55.3062483  49.3060695
  26.6370137  55.8484164  49.3998920  28.1195360  55.8236463  49.7054936
  30.7299265  41.1157113  51.9494901  31.2267964  40.3627075  51.6295971
  29.9586246  41.1521430  51.3838110  38.5829022  46.8197478  53.5913192
  38.5718898  47.7022194  53.2207125  37.7146402  46.4669029  53.3967729
  30.0911519  55.9677547  57.9516032  30.8039491  56.6025012  57.8791934
  29.6001547  56.0641413  57.1356034  31.8129045  49.8728800  49.5233324
  30.8785324  49.9930263  49.3538028  31.9905714  48.9701267  49.2593334
  27.3134234  43.2574496  51.6766585  26.9432021  42.7045536  52.3647491
  27.8093326  42.6532629  51.1241585  35.2001597  45.7146119  50.0583358
  35.6662049  46.5474111  49.9843661  35.6509097  45.2491101  50.7628617
  25.1423432  53.7171991  58.7721603  25.8432892  54.3508474  58.9250997
  24.6718547  54.0586722  58.0117242  33.2677828  52.0589941  47.0569510
  33.5437672  51.9446535  47.9663384  32.3982327  51.6607426  47.0181683
  33.1718260  38.0826706  54.0974259  32.2581339  38.3130933  54.2656466
  33.6011361  38.1665150  54.9488292  32.9424718  46.2716598  56.5974153
  32.2896168  46.5192506  55.9426606  33.3205098  45.4580737  56.2636631
  29.9031892  56.3076292  50.7002324  30.0854286  55.4897947  51.1630076
  30.7264878  56.5243984  50.2627214  30.2374057  55.2344477  47.9617372
  30.7661824  54.7236931  47.3487534  30.5002277  54.9187007  48.8262905
  28.9912291  47.0136409  63.0840191  28.3152928  46.9130539  63.7542566
  29.8139925  46.8575623  63.5476188  20.7391150  53.2508346  55.7052706
  21.3244587  52.5052034  55.8380610  20.5415989  53.5612303  56.5889370
  23.5929805  56.2859593  50.7215148  22.9240181  56.7705721  50.2379188
  23.4542675  56.5328814  51.6358527  15.3308805  45.8213946  54.4257149
  15.3692904  45.2877537  55.2194267  14.8249098  45.2949152  53.8068126
  27.7335074  58.3203337  57.3197807  28.2853382  58.4834958  58.0846892
  28.0741267  58.9107775  56.6477831  22.7099567  40.6678487  57.9219691
  22.7740894  41.5293318  57.5097089  22.6466687  40.0552488  57.1892050
  22.1851840  42.7401619  61.5692726  22.8123879  42.3578696  62.1830250
  21.3279759  42.5215821  61.9348418  32.5845948  53.1464594  63.1746461
  33.1285852  53.7594553  62.6801416  32.0032793  53.7044173  63.6913474
  18.9617382  44.5478048  47.5011080  19.2570824  43.6388727  47.4478134
  18.0605418  44.5265788  47.1792083  30.8703461  56.2685312  54.3061489
  30.7454601  55.4675052  53.7972434  31.5282552  56.7631506  53.8175459
  22.4911629  42.6234045  53.4838629  21.7698215  43.2370013  53.3446102
  23.2804885  43.1591810  53.4055275  32.9338370  54.0694332  55.9341039
  31.9868705  53.9499684  55.8619366  33.2821143  53.1816830  56.0167300
  25.2937943  39.9588471  59.7579281  25.8172345  40.2050768  60.5205590
  25.0750276  40.7908506  59.3382418  20.6905224  42.2292146  47.6250405
  20.3617930  41.3489525  47.4425511  21.0444595  42.1739815  48.5126795
  29.9384803  53.8647049  52.1345391  29.7909765  52.9363756  52.3152961
  30.7638296  53.8867139  51.6502466  23.8047047  42.5165116  47.9925883
  24.1443120  43.0451037  47.2704492  24.2519168  42.8545522  48.7684450
  33.5418925  54.6875607  53.2210264  34.4665472  54.4818469  53.0834715
  33.3734228  54.4392009  54.1299605  26.4990488  40.9002166  57.4428951
  26.1587308  40.1009980  57.8449631  25.7929494  41.2003877  56.8705784
  27.1506960  37.9851479  55.8956274  27.9733029  37.5111957  55.7735165
  27.3945023  38.7641963  56.3954961  25.7915194  41.0139737  46.1919176
  26.5123557  41.3920990  45.6882893  25.1680498  41.7328614  46.2954154
  29.9346317  41.7184886  47.1277508  30.1509932  42.6009524  46.8266336
  29.4540384  41.3271100  46.3983150  24.6745539  44.6770600  53.7048253
  24.5290119  44.9910903  54.5972534  24.1970742  45.2955500  53.1519152
  26.5341921  41.6673148  53.7529142  26.5203490  40.7714241  53.4161440
  27.2514350  41.6743811  54.3867428  28.3868052  42.1010488  55.7982270
  28.1285830  43.0227558  55.7966600  27.8553093  41.7040922  56.4882734
  33.3314241  55.2061275  48.5772355  33.5051118  54.6407697  47.8246208
  33.8243132  56.0062170  48.3951845  19.1491201  47.2175944  56.6435914
  18.6044669  47.9935752  56.7756188  20.0270551  47.5646748  56.4855035
  25.9378817  40.5487528  49.0216713  26.0594729  39.6204174  49.2207600
  25.6480860  40.5626214  48.1095028  28.8070008  38.2342438  52.1583432
  28.8291705  38.2981771  51.2035412  29.2238067  37.3946947  52.3523939
  39.1853632  47.9697698  50.1962655  39.6284778  47.2205023  49.7981778
  38.3080142  47.9607834  49.8136387  34.3189413  54.5228039  45.6769254
  35.0140318  55.1434732  45.8956568  34.6612564  53.6723390  45.9521631
  19.9357223  46.3445840  59.5366071  19.1938959  46.4928476  60.1230701
  19.6149967  46.6054106  58.6732820  36.2180837  51.9727745  47.2056584
  36.7432161  52.3115018  46.4805904  36.1303189  51.0374760  47.0219719
  27.8800885  55.8861818  59.3346461  28.1888012  55.6410965  60.2069161
  28.6776367  56.0908457  58.8465331  27.9021497  58.0399728  51.5651837
  27.4626488  57.5476107  52.2584694  28.6529614  57.4972696  51.3243913
  20.3813836  54.2311269  51.5676466  21.2071856  53.9315041  51.1875109
  20.0307888  53.4618891  52.0166254  25.3495369  53.5837737  53.6374139
  24.7275379  52.9208442  53.3376367  26.0200236  53.6098869  52.9547787
  18.5822441  52.1497595  52.5265399  17.7454350  51.7219770  52.3449400
  18.5546087  52.3430039  53.4636190  25.4219897  42.0619525  63.2306645
  25.4708052  42.9381648  62.8484415  25.9642411  41.5196918  62.6578288
  35.9074743  52.6060648  62.5107782  35.1170286  52.5884787  61.9712282
  35.6708097  53.1448942  63.2656819  36.0272618  49.4553115  59.8240511
  36.0770623  49.2903122  60.7656034  35.9186541  48.5880374  59.4338392
  24.9108876  52.1341660  47.1132600  25.0596997  52.8177125  46.4599272
  25.7175320  52.1146751  47.6282055  33.3176380  45.4384043  61.1399817
  34.2186243  45.2990508  60.8483815  33.3924355  45.6038498  62.0797995
  27.6519185  42.8150898  59.9853004  26.7822495  43.1084464  59.7135592
  27.8878666  43.3991343  60.7060267  37.5290815  51.8750056  60.0682532
  37.2375623  52.2380037  60.9045993  36.9162946  51.1617065  59.8895864
  38.7286497  49.4402936  52.5885103  39.5633388  49.8792740  52.7522663
  38.8645626  48.9641589  51.7693348  35.7778003  46.9982671  58.5362590
  36.2532124  47.1910317  57.7281442  34.8543568  47.0541857  58.2905974
  22.6661509  48.1606838  48.1193669  22.4207551  47.2569168  48.3173879
  22.8357424  48.1623989  47.1773147  30.3558219  39.0330514  57.5018424
  30.8740163  39.7691541  57.1764913  30.0013352  39.3394508  58.3365183
  21.9357157  43.8935196  45.6179830  21.2426402  43.9679551  44.9619866
  21.6908909  43.1295539  46.1401347  30.6070813  35.4530797  53.0219321
  30.8872567  34.7853986  53.6479747  31.3921420  35.6459893  52.5093985
  28.4104282  54.6289791  44.5844347  27.8378249  55.2479978  44.1314819
  28.9837076  55.1789153  45.1184269  34.4779672  43.8748431  56.7690896
  35.4297095  43.9746529  56.7903120  34.3083122  43.0826700  57.2788980
  32.4994051  40.9604014  56.9550297  31.9043983  41.2409027  56.2596785
  32.2143748  41.4497915  57.7267038  31.6301542  54.9126941  45.7152929
  32.5632215  54.8472503  45.9185805  31.5424755  55.7483208  45.2567462
  36.9567750  47.0954551  55.8833196  36.9244070  46.1570551  56.0692879
  37.5668373  47.1738587  55.1499020  28.7951080  45.9650604  41.9260400
  29.7410185  45.8356812  41.9948818  28.4165325  45.2265266  42.4029828
  37.1062238  43.8865594  55.9291479  36.5901287  43.1024051  55.7421408
  37.9902187  43.5584311  56.0937998  42.7744299  48.1570558  55.0239232
  43.5047688  47.8955846  55.5846936  42.1651245  47.4199279  55.0641300
  40.8559597  46.2978420  55.6213684  40.1292760  46.1634385  55.0130175
  40.4406883  46.6055249  56.4270402  28.6789773  50.0168350  63.3861057
  29.5992782  50.1946949  63.5801103  28.6439356  49.0724395  63.2340756
  26.9793998  43.8900580  41.8615285  26.0725453  43.5933693  41.9377998
  27.2569979  43.5930398  40.9949571  17.8971938  45.2106943  52.3114331
  17.5774722  44.3572252  52.0188705  17.3505366  45.4255522  53.0672299
  21.6751845  47.9269384  56.0283838  21.8937855  48.8586492  56.0471872
  22.0877619  47.5677359  56.8138642  26.5479711  43.5002590  65.4186587
  26.4476438  44.4496947  65.3498678  26.3301253  43.1720829  64.5462657
  25.7492782  40.7487515  42.0027264  26.6111946  41.0742414  42.2623081
  25.9343126  39.9619011  41.4900330  17.7660198  48.8309855  54.2807453
  17.0723669  48.4163808  53.7677407  18.5133189  48.8730391  53.6840872
  26.4110981  46.9299729  64.2351648  25.9278063  47.7300089  64.4415537
  26.4971920  46.9407674  63.2819092  19.6796940  48.7628109  52.1573468
  19.6567629  48.8615796  51.2055351  19.9897577  49.6093260  52.4790634
  22.3384318  50.8204264  56.2720082  23.2927572  50.7888206  56.2050014
  22.1396842  50.3594888  57.0870308  22.9283700  49.3905380  58.8390880
  23.7476589  49.8849458  58.8625717  23.2020508  48.4737348  58.8108447
  36.0364833  41.8062653  51.9173175  36.8125223  42.2959106  52.1897791
  35.3112967  42.2320707  52.3745044  38.4737391  42.5190272  52.9747115
  39.0681882  42.2786008  52.2640423  38.5463975  41.7997403  53.6020651
  20.6934547  56.3623883  53.2890280  20.5589015  55.6024284  52.7228278
  20.2766609  57.0864783  52.8219069  31.8293510  51.5460807  42.2966855
  32.5329360  51.7510809  42.9124511  31.1056159  52.1137569  42.5615939
  32.6591320  47.2970668  48.4169125  32.6026522  47.7539219  47.5776758
  33.2119663  46.5361353  48.2391968  36.4696126  43.0860400  49.2419245
  36.2133061  42.6857036  50.0727453  35.8448994  43.8004194  49.1169384
  40.7808464  45.8256473  51.7490536  40.2208022  45.8949662  52.5222098
  40.1751968  45.6497458  51.0290033  23.8503673  57.2593200  53.5008723
  23.7336057  58.2038633  53.3987413  23.0296119  56.9566762  53.8894522
  33.7380208  51.9843336  44.3465315  34.5725811  51.5524534  44.1642790
  33.5764550  51.8125350  45.2742210  33.3926100  48.4875449  45.7121655
  33.3374904  48.3219721  44.7710099  32.7672155  49.1951482  45.8683844
  18.1818615  43.7243514  59.5383077  18.8277478  43.2142468  60.0270302
  17.9735766  44.4612195  60.1126502  30.7072007  50.7924361  65.0375217
  31.5763167  50.9665013  64.6761852  30.2278758  51.6118778  64.9150947
  24.8758187  57.9121462  56.7164651  25.7785434  57.9445072  57.0331146
  24.6495557  56.9821913  56.7310987  26.6311789  56.6652449  53.3774730
  25.6807420  56.6654310  53.2639102  26.9344275  55.9185183  52.8610764
  30.5174345  34.5826335  49.5452910  29.7506740  34.0284822  49.6909592
  30.9285050  34.6548204  50.4067061  22.5216106  40.8711131  63.6358091
  23.3847567  40.5147936  63.8461416  21.9481516  40.5325026  64.3233495
  42.3664483  62.5012987  54.4420492  43.0042893  62.3819734  53.7383832
  42.2485326  63.4493831  54.5008444  39.1754189  62.4540415  54.3782017
  38.8372700  62.3381480  53.4902552  40.0443957  62.0531580  54.3583023
  35.0341005  64.3075892  50.3678908  34.4705870  64.2165829  49.5995195
  34.9193400  63.4875796  50.8481400  39.6573972  63.6075267  60.3368222
  39.6462613  63.2128065  59.4648726  39.8194611  62.8741340  60.9301994
  32.5805437  65.8027083  53.2063128  33.3726728  65.4617908  52.7909427
  32.8202087  65.9122058  54.1265281  40.6140563  67.9746859  45.6793373
  39.9628543  68.5600940  45.2927386  41.4084926  68.5053054  45.7388410
  34.5396190  65.0635996  46.0780507  35.3127066  64.5164984  45.9393383
  34.8921589  65.9280246  46.2894968  36.3781233  66.3912379  59.2847406
  36.0871099  67.2958010  59.1694073  37.0138217  66.4328906  59.9991476
  37.3037440  63.7689227  55.8748766  37.9001012  63.5445250  55.1605729
  37.3612411  63.0273973  56.4774214  36.8762468  61.2228663  43.7098957
  37.1287989  60.7010184  42.9482420  35.9387027  61.0594808  43.8125640
  41.9205751  60.2264441  51.5173700  42.7068840  59.8083864  51.1664117
  42.1844455  61.1310533  51.6855348  42.0915828  65.6637291  46.2162357
  41.4561661  65.7371918  46.9283262  41.7613235  66.2530890  45.5381436
  47.3214178  60.1639674  52.4206679  48.0539350  59.5938891  52.6544508
  46.5653534  59.7761275  52.8613184  36.5958757  63.1256769  45.9123332
  36.4795015  62.4501672  46.5804416  36.7061017  62.6389142  45.0955485
  38.9390298  62.5866916  49.6170021  38.5748505  62.0597537  50.3282943
  39.7957414  62.1965385  49.4436506  44.8439599  53.8761248  56.8801287
  44.5122923  54.7456659  56.6562502  44.2485212  53.5597532  57.5595318
  38.5795785  57.6156815  44.6131370  38.7470187  58.4837052  44.9801841
  38.3892954  57.7784097  43.6892659  41.3371118  66.0773794  56.2797200
  41.0371841  66.9798833  56.1713007  40.9922178  65.8105977  57.1318353
  34.7883600  62.5287591  52.3133904  33.8634096  62.3963805  52.5211596
  35.0368013  63.3081810  52.8103847  44.7368262  58.5956334  53.9594637
  43.8285139  58.5271743  53.6653398  44.6855858  59.0728279  54.7876463
  38.5585006  60.0714473  45.5978036  38.4384631  60.5171524  46.4363517
  37.8637594  60.4199791  45.0391575  32.1492411  62.1720865  53.1477693
  32.2784792  62.4255344  54.0617105  31.4689862  62.7648573  52.8282349
  36.3191898  72.8418115  49.2468168  36.2415928  73.7925940  49.3256648
  35.7153542  72.4963987  49.9043094  38.8109128  60.0145980  61.9029535
  38.0342462  60.5739900  61.8932399  39.4499691  60.5002763  62.4244405
  46.6029908  56.7972773  55.7372511  45.9604289  57.0905306  55.0912306
  46.0984837  56.6825693  56.5425708  44.2570072  60.5435946  46.4258370
  45.1687928  60.7763333  46.2506068  43.7479719  61.1272990  45.8633449
  37.0655500  62.8231433  61.4647502  37.8070184  63.3616477  61.1882325
  36.3592485  63.4497722  61.6219053  42.5410840  64.9660574  60.0619663
  42.9494196  64.5242984  59.3174295  41.8188101  64.3913201  60.3153856
  38.8941910  59.9033181  57.4353220  39.7403105  60.3272594  57.5787869
  38.8340547  59.2466805  58.1291783  42.8639654  65.5261764  53.8171952
  42.2348517  65.6907479  53.1148020  42.4765316  65.9403374  54.5882916
  46.7428886  66.4616202  51.1716316  46.0579924  66.8415104  50.6213349
  46.8272735  67.0711529  51.9048263  42.0441355  57.5637549  59.0934394
  41.8002287  58.3179610  58.5568669  42.3201286  57.9422897  59.9281641
  43.9979818  64.1076161  57.7711659  44.2096713  64.7507921  57.0946040
  43.9509566  63.2738478  57.3033589  41.6006047  56.7193982  54.6748231
  40.7390526  57.0175236  54.9664969  41.6268481  56.9364381  53.7429264
  38.4167616  65.2636173  51.0822037  38.8805962  65.5423876  50.2926660
  38.1524414  64.3619617  50.8995128  35.3091697  64.8107654  54.0201800
  35.8793054  65.2394922  53.3819285  35.8999809  64.5290239  54.7185986
  37.3536502  61.3859325  47.8911602  38.0560546  61.8380369  48.3585529
  37.0217131  60.7443144  48.5191495  35.8016864  59.9771082  62.2662812
  35.1715524  60.6587362  62.4998208  35.6952952  59.8654163  61.3215950
  31.0961836  59.6442878  53.1928736  30.3060890  59.9000406  52.7168846
  31.5873084  60.4591215  53.2980776  45.1125646  66.9848117  55.9434017
  45.9343089  66.5828304  55.6616698  45.1088049  66.8816351  56.8950132
  33.0476582  60.0087457  50.1512212  32.2507745  60.1206151  50.6695708
  32.8202174  60.3474109  49.2853103  38.8782249  66.5332160  58.0994727
  38.9426682  66.9952567  58.9352899  38.1693173  65.9029525  58.2277037
  29.3799539  59.8973368  55.6243727  29.6307578  60.7820378  55.8901302
  29.9159088  59.7177970  54.8518818  53.2031639  63.3286865  52.2918988
  52.4495347  62.7594263  52.1362992  53.3379180  63.2949530  53.2389623
  38.5930267  68.2000268  47.9673707  38.4575942  69.0451803  48.3958555
  39.1340079  68.4019545  47.2039641  35.0797606  54.2791847  64.6288063
  34.6864552  53.7258046  65.3035707  35.8963747  54.5902426  65.0194580
  32.0459664  65.7175706  48.5401632  32.5584185  66.5118956  48.6907197
  32.6982377  65.0201996  48.4735234  33.8554549  68.8341462  50.6224386
  34.0321177  69.7559427  50.4345370  34.6511382  68.5199881  51.0518765
  37.9965567  55.6949727  62.2208319  38.7375281  56.2956880  62.1412782
  38.2283490  54.9527364  61.6626362  33.1406905  60.8806094  60.4986549
  33.0260421  59.9791351  60.7993648  32.2851423  61.1269791  60.1471365
  40.2198743  68.8223834  62.0974049  39.7762597  68.0360213  61.7794954
  40.8815957  69.0102985  61.4317940  34.9785864  70.3519636  56.6234728
  35.5293290  70.2236699  55.8511722  34.1397340  70.6514525  56.2729621
  42.3179981  69.1026634  60.1255451  42.2998457  69.9235515  59.6335720
  43.2399901  68.9780709  60.3505592  38.7753035  66.6170763  60.9678959
  39.3081372  65.8559052  60.7378267  38.2467117  66.3244415  61.7103114
  41.9422730  51.7230829  56.4972601  41.5987000  52.6132471  56.4211711
  42.3101693  51.5332487  55.6342186  30.0108581  64.0464360  49.3161203
  30.8483803  64.4561368  49.0994911  30.1886849  63.1063802  49.2861397
  41.9073013  61.7139441  45.0045036  41.3919637  62.4844045  45.2433423
  41.6350322  61.0404577  45.6278097  39.4920124  56.5589141  50.0630274
  38.6361721  56.1695992  49.8835913  39.9047076  56.6381102  49.2030060
  41.0219271  54.0935485  54.4621834  40.5184066  54.0565620  53.6489639
  41.3149878  55.0028227  54.5218491  37.2662157  54.1774214  53.4688016
  38.1315153  53.9817023  53.1093905  37.3339666  53.9484566  54.3957373
  46.8807287  64.4671795  46.9398209  46.1036730  64.1282955  46.4953372
  47.5598768  64.4724418  46.2653174  41.6959316  59.5866533  46.8304817
  41.3909452  59.9012682  47.6814960  42.6489758  59.6647953  46.8732150
  40.1405748  65.7456756  48.4797771  39.6127110  65.0109516  48.1671009
  39.6393251  66.5231432  48.2337739  45.1198594  63.9405776  53.5964817
  44.4622269  64.6305038  53.6844946  45.9238993  64.3302208  53.9398804
  34.8724476  56.4076422  50.8404383  35.4468228  56.1851604  50.1077576
  35.4595458  56.4765117  51.5932984  43.9304053  62.2950149  51.6468759
  44.4435935  62.9280141  52.1490469  44.5805277  61.6951345  51.2812119
  35.1994063  58.4380883  44.8600268  34.3631375  58.7755570  45.1809543
  35.0598833  58.3029863  43.9227405  37.1747143  53.2817671  49.5679452
  36.5211556  52.9666688  48.9436067  37.1327618  52.6593412  50.2939275
  38.2858348  63.5636966  41.4832744  37.3785410  63.3326220  41.6823893
  38.7829380  62.7674585  41.6706726  41.1926427  72.2734473  44.4029430
  40.5188126  72.5766170  45.0114388  41.5792249  73.0763554  44.0534887
  40.4084884  59.7699605  53.8927100  39.4907445  59.9914552  53.7348788
  40.8245027  59.8445915  53.0338807  41.1919932  61.1691020  49.0229780
  41.9391751  61.6812418  48.7136902  41.4611521  60.8475073  49.8834174
  39.4646582  63.6649561  46.0056734  38.5557801  63.3808594  46.1029204
  39.4941666  64.0848640  45.1460041  44.6965849  67.2756151  49.7747902
  44.2428176  66.4347060  49.8313092  44.0659816  67.9117549  50.1122682
  43.6398769  58.2048137  51.0048569  42.9021526  57.6925523  51.3358812
  43.8925542  57.7648518  50.1931846  43.1398788  69.1132647  50.7097720
  43.4321763  69.6737704  49.9910086  43.6497409  69.4061208  51.4650879
  43.7410396  50.9824389  51.5990339  44.0469273  50.1221752  51.3116254
  44.4663001  51.5742009  51.3989332  30.0334752  61.3855075  49.9871936
  29.8359152  60.7924436  49.2623003  29.4781416  61.0807285  50.7047875
  38.0131476  61.2778182  52.1066530  38.0680086  60.3252018  52.0309006
  37.2022678  61.4337621  52.5907828  39.1622670  65.2058305  43.3444813
  38.7242099  64.4894164  42.8850450  39.9033110  65.4334420  42.7829904
  35.9523836  59.8955241  49.8656908  35.1391701  60.1949412  50.2722101
  36.4482830  59.5010930  50.5831391  38.1032414  69.8912998  51.7991173
  38.0608592  70.1173845  50.8699705  39.0195112  69.6576373  51.9476974
  41.5498047  60.3597066  58.6971802  41.9047435  60.5868539  59.5566268
  42.1970179  60.6915443  58.0749058  47.2795784  63.4815502  49.4021131
  47.1413683  63.6717098  48.4742321  46.9232003  64.2434885  49.8589183
  35.4437910  57.4673597  55.4818143  36.0837290  57.3262356  54.7841107
  34.6115441  57.1808110  55.1056745  47.3065164  65.5492029  54.4132403
  47.7401671  65.4567318  55.2615457  48.0196745  65.5249529  53.7752419
  36.2198214  66.7676027  51.5953136  37.0138813  66.2726348  51.3935711
  35.5089907  66.2393891  51.2320841  41.0393059  69.1494123  55.9465503
  41.0930081  69.7185059  56.7143219  40.1707840  69.3196008  55.5819541
  32.5280978  60.9119109  47.6712889  31.5978566  60.8503565  47.8882851
  32.6238450  60.3895062  46.8749530  32.4466527  57.4373922  50.2591130
  32.7073344  58.3519255  50.1500291  33.2683699  56.9698365  50.4087743
  33.9191452  58.8511679  57.4289955  34.5914506  58.6429041  56.7802604
  33.0921239  58.6533765  56.9895187  48.1680714  65.5915729  56.9465288
  48.3616604  66.4961540  57.1924563  48.0681332  65.1323149  57.7803873
  39.8217024  55.4773620  59.4455616  39.1744939  56.1763570  59.3520092
  40.5918040  55.9109764  59.8131864  43.2295822  65.7422472  62.5206169
  43.0781329  65.5133024  61.6036253  43.2200502  66.6993074  62.5337514
  39.9981159  63.3154385  57.5052435  40.9273219  63.4665545  57.3321403
  39.5772189  63.4038406  56.6501082  38.7969490  67.3405049  55.2750973
  38.6580576  66.9723834  56.1476911  38.0084087  67.8552689  55.1034931
  39.3917642  72.4414146  46.6176509  39.5669398  71.9702189  47.4322132
  38.7050430  73.0679912  46.8457770  40.3474706  66.7186652  52.6639811
  40.0124538  66.6787422  53.5597461  39.8478651  66.0531368  52.1910221
  34.3218949  62.1254282  58.1892392  34.1838747  61.3934521  58.7903931
  35.2323873  62.0363182  57.9076580  43.2833897  64.0642686  42.9376870
  42.6663068  63.3389515  42.8409923  42.8150386  64.8252047  42.5943945
  36.9501250  61.8374241  57.6776072  37.6600869  61.1967434  57.6362690
  36.9070558  62.0887136  58.6002252  44.9388029  68.7741595  60.5982651
  44.8800575  68.0900815  59.9313234  45.3407547  69.5160585  60.1463277
  35.6630184  58.8239459  59.4971711  35.1267541  58.3730198  60.1493307
  35.0746893  58.9585368  58.7542175  33.9578728  75.5903509  53.3916370
  34.1975326  76.2222033  54.0695388  33.1147924  75.2391549  53.6781729
  35.0732443  58.2828111  42.0598175  34.1961909  58.1616912  41.6960421
  35.5490196  57.4914189  41.8077063  44.9405436  66.7381179  58.8296630
  44.0532215  66.4007100  58.9523029  45.5103987  66.0064210  59.0665396
  26.5934583  63.0705270  52.1539682  27.2805623  62.7567000  51.5660697
  26.4382712  63.9746635  51.8806933  31.3969305  57.9595467  56.5824706
  31.3127494  57.3521137  55.8475115  30.5752012  58.4504485  56.5834202
  38.4706590  71.3982631  55.7957874  38.3976761  72.2037603  56.3077178
  38.0283983  71.5974597  54.9705895  38.2596369  70.6354401  49.3060695
  37.4763891  71.1776081  49.3998920  38.9589114  71.1528381  49.7054936
  41.5693019  56.4449031  51.9494901  42.0661719  55.6918993  51.6295971
  40.7980001  56.4813347  51.3838110  49.4222777  62.1489396  53.5913192
  49.4112653  63.0314112  53.2207125  48.5540156  61.7960947  53.3967729
  40.9305273  71.2969465  57.9516032  41.6433245  71.9316930  57.8791934
  40.4395302  71.3933331  57.1356034  42.6522800  65.2020718  49.5233324
  41.7179079  65.3222180  49.3538028  42.8299468  64.2993185  49.2593334
  38.1527988  58.5866414  51.6766585  37.7825776  58.0337454  52.3647491
  38.6487080  57.9824547  51.1241585  46.0395351  61.0438037  50.0583358
  46.5055803  61.8766029  49.9843661  46.4902852  60.5783019  50.7628617
  35.9817187  69.0463909  58.7721603  36.6826646  69.6800392  58.9250997
  35.5112302  69.3878640  58.0117242  44.1071582  67.3881858  47.0569510
  44.3831426  67.2738453  47.9663384  43.2376081  66.9899343  47.0181683
  44.0112014  53.4118624  54.0974259  43.0975094  53.6422851  54.2656466
  44.4405115  53.4957068  54.9488292  43.7818473  61.6008516  56.5974153
  43.1289923  61.8484423  55.9426606  44.1598852  60.7872654  56.2636631
  40.7425646  71.6368209  50.7002324  40.9248041  70.8189865  51.1630076
  41.5658632  71.8535901  50.2627214  41.0767812  70.5636394  47.9617372
  41.6055578  70.0528849  47.3487534  41.3396031  70.2478925  48.8262905
  39.8306046  62.3428327  63.0840191  39.1546683  62.2422456  63.7542566
  40.6533679  62.1867541  63.5476188  31.5784905  68.5800264  55.7052706
  32.1638341  67.8343952  55.8380610  31.3809743  68.8904220  56.5889370
  34.4323560  71.6151511  50.7215148  33.7633935  72.0997639  50.2379188
  34.2936430  71.8620731  51.6358527  26.1702559  61.1505864  54.4257149
  26.2086659  60.6169454  55.2194267  25.6642852  60.6241069  53.8068126
  38.5728828  73.6495255  57.3197807  39.1247136  73.8126876  58.0846892
  38.9135022  74.2399692  56.6477831  33.5493322  55.9970404  57.9219691
  33.6134648  56.8585235  57.5097089  33.4860442  55.3844406  57.1892050
  33.0245594  58.0693537  61.5692726  33.6517633  57.6870614  62.1830250
  32.1673513  57.8507739  61.9348418  43.4239703  68.4756512  63.1746461
  43.9679607  69.0886470  62.6801416  42.8426548  69.0336090  63.6913474
  29.8011137  59.8769966  47.5011080  30.0964578  58.9680644  47.4478134
  28.8999173  59.8557705  47.1792083  41.7097216  71.5977230  54.3061489
  41.5848355  70.7966970  53.7972434  42.3676307  72.0923423  53.8175459
  33.3305384  57.9525963  53.4838629  32.6091970  58.5661930  53.3446102
  34.1198640  58.4883727  53.4055275  43.7732124  69.3986250  55.9341039
  42.8262460  69.2791601  55.8619366  44.1214897  68.5108748  56.0167300
  36.1331697  55.2880389  59.7579281  36.6566099  55.5342686  60.5205590
  35.9144031  56.1200424  59.3382418  31.5298979  57.5584064  47.6250405
  31.2011685  56.6781443  47.4425511  31.8838349  57.5031732  48.5126795
  40.7778557  69.1938966  52.1345391  40.6303520  68.2655674  52.3152961
  41.6032051  69.2159057  51.6502466  34.6440802  57.8457033  47.9925883
  34.9836874  58.3742955  47.2704492  35.0912922  58.1837440  48.7684450
  44.3812679  70.0167525  53.2210264  45.3059227  69.8110386  53.0834715
  44.2127983  69.7683926  54.1299605  37.3384243  56.2294084  57.4428951
  36.9981063  55.4301897  57.8449631  36.6323249  56.5295795  56.8705784
  37.9900714  53.3143397  55.8956274  38.8126784  52.8403875  55.7735165
  38.2338778  54.0933880  56.3954961  36.6308949  56.3431655  46.1919176
  37.3517311  56.7212908  45.6882893  36.0074253  57.0620532  46.2954154
  40.7740072  57.0476804  47.1277508  40.9903686  57.9301442  46.8266336
  40.2934139  56.6563017  46.3983150  35.5139293  60.0062517  53.7048253
  35.3683874  60.3202820  54.5972534  35.0364497  60.6247418  53.1519152
  37.3735676  56.9965065  53.7529142  37.3597245  56.1006159  53.4161440
  38.0908104  57.0035729  54.3867428  39.2261807  57.4302405  55.7982270
  38.9679585  58.3519476  55.7966600  38.6946847  57.0332840  56.4882734
  44.1707995  70.5353193  48.5772355  44.3444873  69.9699615  47.8246208
  44.6636887  71.3354087  48.3951845  29.9884955  62.5467862  56.6435914
  29.4438423  63.3227670  56.7756188  30.8664305  62.8938666  56.4855035
  36.7772572  55.8779445  49.0216713  36.8988483  54.9496092  49.2207600
  36.4874614  55.8918131  48.1095028  39.6463762  53.5634356  52.1583432
  39.6685459  53.6273689  51.2035412  40.0631821  52.7238865  52.3523939
  50.0247387  63.2989615  50.1962655  50.4678533  62.5496941  49.7981778
  49.1473897  63.2899752  49.8136387  45.1583168  69.8519957  45.6769254
  45.8534073  70.4726650  45.8956568  45.5006318  69.0015308  45.9521631
  30.7750977  61.6737758  59.5366071  30.0332713  61.8220393  60.1230701
  30.4543721  61.9346023  58.6732820  47.0574591  67.3019662  47.2056584
  47.5825915  67.6406935  46.4805904  46.9696944  66.3666678  47.0219719
  38.7194640  71.2153736  59.3346461  39.0281766  70.9702883  60.2069161
  39.5170122  71.4200375  58.8465331  38.7415252  73.3691646  51.5651837
  38.3020242  72.8768024  52.2584694  39.4923369  72.8264613  51.3243913
  31.2207591  69.5603187  51.5676466  32.0465611  69.2606958  51.1875109
  30.8701643  68.7910809  52.0166254  36.1889124  68.9129655  53.6374139
  35.5669133  68.2500360  53.3376367  36.8593991  68.9390787  52.9547787
  29.4216196  67.4789513  52.5265399  28.5848104  67.0511687  52.3449400
  29.3939841  67.6721956  53.4636190  36.2613651  57.3911443  63.2306645
  36.3101807  58.2673566  62.8484415  36.8036166  56.8488836  62.6578288
  46.7468497  67.9352566  62.5107782  45.9564041  67.9176705  61.9712282
  46.5101852  68.4740860  63.2656819  46.8666372  64.7845032  59.8240511
  46.9164377  64.6195040  60.7656034  46.7580296  63.9172291  59.4338392
  35.7502631  67.4633578  47.1132600  35.8990751  68.1469043  46.4599272
  36.5569074  67.4438668  47.6282055  44.1570135  60.7675960  61.1399817
  45.0579997  60.6282425  60.8483815  44.2318109  60.9330415  62.0797995
  38.4912940  58.1442815  59.9853004  37.6216249  58.4376381  59.7135592
  38.7272420  58.7283260  60.7060267  48.3684569  67.2041974  60.0682532
  48.0769377  67.5671955  60.9045993  47.7556700  66.4908982  59.8895864
  49.5680251  64.7694854  52.5885103  50.4027143  65.2084658  52.7522663
  49.7039380  64.2933507  51.7693348  46.6171757  62.3274589  58.5362590
  47.0925879  62.5202235  57.7281442  45.6937323  62.3833774  58.2905974
  33.5055264  63.4898756  48.1193669  33.2601306  62.5861086  48.3173879
  33.6751178  63.4915906  47.1773147  41.1951974  54.3622432  57.5018424
  41.7133918  55.0983459  57.1764913  40.8407106  54.6686425  58.3365183
  32.7750911  59.2227113  45.6179830  32.0820156  59.2971468  44.9619866
  32.5302663  58.4587457  46.1401347  41.4464568  50.7822715  53.0219321
  41.7266322  50.1145904  53.6479747  42.2315175  50.9751810  52.5093985
  39.2498036  69.9581709  44.5844347  38.6772003  70.5771896  44.1314819
  39.8230830  70.5081070  45.1184269  45.3173426  59.2040349  56.7690896
  46.2690849  59.3038446  56.7903120  45.1476877  58.4118617  57.2788980
  43.3387806  56.2895932  56.9550297  42.7437738  56.5700945  56.2596785
  43.0537502  56.7789833  57.7267038  42.4695296  70.2418859  45.7152929
  43.4025969  70.1764420  45.9185805  42.3818509  71.0775126  45.2567462
  45.0983313  69.5584729  42.6756877  45.0196944  69.2244593  43.5692635
  45.9192980  70.0506497  42.6748349  47.7961504  62.4246468  55.8833196
  47.7637824  61.4862469  56.0692879  48.4062128  62.5030505  55.1499020
  39.6344835  61.2942521  41.9260400  40.5803940  61.1648729  41.9948818
  39.2559080  60.5557183  42.4029828  47.9455993  59.2157512  55.9291479
  47.4295041  58.4315968  55.7421408  48.8295941  58.8876228  56.0937998
  45.6066719  52.9598527  51.8887291  45.4091541  52.6513616  52.7730623
  46.2166425  53.6860166  52.0185221  53.6138054  63.4862475  55.0239232
  54.3441442  63.2247763  55.5846936  53.0044999  62.7491197  55.0641300
  51.6953351  61.6270338  55.6213684  50.9686515  61.4926303  55.0130175
  51.2800638  61.9347166  56.4270402  39.5183527  65.3460267  63.3861057
  40.4386537  65.5238866  63.5801103  39.4833110  64.4016313  63.2340756
  37.8187752  59.2192498  41.8615285  36.9119207  58.9225610  41.9377998
  38.0963733  58.9222316  40.9949571  28.7365692  60.5398861  52.3114331
  28.4168477  59.6864169  52.0188705  28.1899121  60.7547439  53.0672299
  32.5145600  63.2561302  56.0283838  32.7331610  64.1878410  56.0471872
  32.9271374  62.8969277  56.8138642  39.4349818  53.7629387  48.0159526
  38.6250546  53.4176472  48.3914772  40.1234235  53.4536931  48.6047138
  41.3640366  52.8407434  49.6383823  41.9171405  53.2602888  50.2973846
  41.6010452  51.9143182  49.6806779  37.3873465  58.8294508  65.4186587
  37.2870192  59.7788865  65.3498678  37.1695007  58.5012747  64.5462657
  28.6053952  64.1601773  54.2807453  27.9117424  63.7455725  53.7677407
  29.3526943  64.2022309  53.6840872  44.7419173  54.9507959  49.1462487
  44.1617842  55.6092763  48.7640539  44.4755106  54.1285304  48.7349905
  43.1922740  54.3513017  51.3483807  43.6922518  54.4629552  50.5398126
  43.8358347  54.0474070  51.9884616  37.2504735  62.2591647  64.2351648
  36.7671817  63.0592007  64.4415537  37.3365674  62.2699592  63.2819092
  30.5190695  64.0920026  52.1573468  30.4961383  64.1907714  51.2055351
  30.8291331  64.9385177  52.4790634  33.1778073  66.1496181  56.2720082
  34.1321326  66.1180124  56.2050014  32.9790596  65.6886805  57.0870308
  33.7677455  64.7197297  58.8390880  34.5870344  65.2141376  58.8625717
  34.0414263  63.8029266  58.8108447  43.5244051  57.1108050  48.2018835
  42.6369906  57.3957700  47.9839030  43.9398040  56.9501813  47.3546112
  46.8758587  57.1354571  51.9173175  47.6518977  57.6251023  52.1897791
  46.1506721  57.5612625  52.3745044  49.3131146  57.8482190  52.9747115
  49.9075637  57.6077926  52.2640423  49.3857730  57.1289321  53.6020651
  31.5328302  71.6915801  53.2890280  31.3982770  70.9316202  52.7228278
  31.1160364  72.4156701  52.8219069  42.6687265  66.8752724  42.2966855
  43.3723115  67.0802727  42.9124511  41.9449913  67.4429486  42.5615939
  43.4985075  62.6262586  48.4169125  43.4420276  63.0831137  47.5776758
  44.0513417  61.8653270  48.2391968  47.3089881  58.4152318  49.2419245
  47.0526815  58.0148953  50.0727453  46.6842749  59.1296112  49.1169384
  51.6202219  61.1548391  51.7490536  51.0601777  61.2241580  52.5222098
  51.0145722  60.9789375  51.0290033  34.6897427  72.5885118  53.5008723
  34.5729812  73.5330550  53.3987413  33.8689874  72.2858680  53.8894522
  44.5773962  67.3135254  44.3465315  45.4119566  66.8816452  44.1642790
  44.4158305  67.1417267  45.2742210  44.2319854  63.8167367  45.7121655
  44.1768658  63.6511638  44.7710099  43.6065909  64.5243400  45.8683844
  29.0212369  59.0535431  59.5383077  29.6671233  58.5434385  60.0270302
  28.8129520  59.7904113  60.1126502  41.5465761  66.1216279  65.0375217
  42.4156921  66.2956931  64.6761852  41.0672513  66.9410696  64.9150947
  37.5415980  53.3175476  45.2906973  37.5294649  54.2617316  45.4475244
  38.4339402  53.1345621  44.9966434  35.7151942  73.2413380  56.7164651
  36.6179188  73.2736990  57.0331146  35.4889312  72.3113831  56.7310987
  37.4705544  71.9944366  53.3774730  36.5201175  71.9946228  53.2639102
  37.7738030  71.2477101  52.8610764  41.3568099  49.9118253  49.5452910
  40.5900495  49.3576739  49.6909592  41.7678804  49.9840121  50.4067061
  33.3609860  56.2003048  63.6358091  34.2241322  55.8439853  63.8461416
  32.7875271  55.8616943  64.3233495  53.2058237  77.8304905  54.4420492
  53.8436647  77.7111652  53.7383832  53.0879080  78.7785749  54.5008444
  50.0147943  77.7832333  54.3782017  49.6766455  77.6673398  53.4902552
  50.8837712  77.3823498  54.3583023  45.8734759  79.6367809  50.3678908
  45.3099624  79.5457746  49.5995195  45.7587154  78.8167714  50.8481400
  43.4199191  81.1319001  53.2063128  44.2120483  80.7909826  52.7909427
  43.6595841  81.2413976  54.1265281  51.4534318  83.3038777  45.6793373
  50.8022298  83.8892857  45.2927386  52.2478681  83.8344972  45.7388410
  45.3789945  80.3927914  46.0780507  46.1520821  79.8456901  45.9393383
  45.7315344  81.2572163  46.2894968  48.1431194  79.0981145  55.8748766
  48.7394767  78.8737167  55.1605729  48.2006166  78.3565890  56.4774214
  47.7156223  76.5520580  43.7098957  47.9681743  76.0302102  42.9482420
  46.7780782  76.3886726  43.8125640  52.7599506  75.5556359  51.5173700
  53.5462595  75.1375782  51.1664117  53.0238210  76.4602451  51.6855348
  52.9309583  80.9929209  46.2162357  52.2955416  81.0663835  46.9283262
  52.6006989  81.5822808  45.5381436  58.1607933  75.4931592  52.4206679
  58.8933105  74.9230809  52.6544508  57.4047288  75.1053192  52.8613184
  47.4352512  78.4548686  45.9123332  47.3188770  77.7793590  46.5804416
  47.5454771  77.9681060  45.0955485  49.7784052  77.9158833  49.6170021
  49.4142260  77.3889454  50.3282943  50.6351168  77.5257302  49.4436506
  55.6833353  69.2053166  56.8801287  55.3516678  70.0748577  56.6562502
  55.0878966  68.8889450  57.5595318  49.4189539  72.9448733  44.6131370
  49.5863942  73.8128969  44.9801841  49.2286709  73.1076015  43.6892659
  52.1764873  81.4065712  56.2797200  51.8765596  82.3090751  56.1713007
  51.8315932  81.1397895  57.1318353  45.6277354  77.8579509  52.3133904
  44.7027851  77.7255723  52.5211596  45.8761767  78.6373728  52.8103847
  55.5762016  73.9248252  53.9594637  54.6678894  73.8563661  53.6653398
  55.5249612  74.4020197  54.7876463  49.3978760  75.4006391  45.5978036
  49.2778386  75.8463441  46.4363517  48.7031349  75.7491708  45.0391575
  42.9886165  77.5012782  53.1477693  43.1178546  77.7547261  54.0617105
  42.3083616  78.0940490  52.8282349  57.4423663  72.1264691  55.7372511
  56.7998043  72.4197224  55.0912306  56.9378591  72.0117611  56.5425708
  55.0963826  75.8727864  46.4258370  56.0081683  76.1055250  46.2506068
  54.5873474  76.4564908  45.8633449  47.9049254  78.1523351  61.4647502
  48.6463939  78.6908395  61.1882325  47.1986240  78.7789640  61.6219053
  49.7335664  75.2325098  57.4353220  50.5796859  75.6564512  57.5787869
  49.6734302  74.5758723  58.1291783  53.7033409  80.8553682  53.8171952
  53.0742271  81.0199396  53.1148020  53.3159071  81.2695292  54.5882916
  52.8835110  72.8929467  59.0934394  52.6396041  73.6471527  58.5568669
  53.1595040  73.2714814  59.9281641  54.8373572  79.4368079  57.7711659
  55.0490468  80.0799839  57.0946040  54.7903321  78.6030396  57.3033589
  52.4399801  72.0485900  54.6748231  51.5784280  72.3467153  54.9664969
  52.4662236  72.2656299  53.7429264  49.2561371  80.5928090  51.0822037
  49.7199716  80.8715793  50.2926660  48.9918169  79.6911535  50.8995128
  46.1485452  80.1399572  54.0201800  46.7186809  80.5686840  53.3819285
  46.7393564  79.8582156  54.7185986  48.1930257  76.7151243  47.8911602
  48.8954300  77.1672286  48.3585529  47.8610885  76.0735061  48.5191495
  46.6410618  75.3062999  62.2662812  46.0109279  75.9879280  62.4998208
  46.5346706  75.1946081  61.3215950  41.9355591  74.9734795  53.1928736
  41.1454645  75.2292324  52.7168846  42.4266838  75.7883133  53.2980776
  43.8870336  75.3379375  50.1512212  43.0901499  75.4498069  50.6695708
  43.6595928  75.6766027  49.2853103  40.2193294  75.2265286  55.6243727
  40.4701332  76.1112296  55.8901302  40.7552842  75.0469887  54.8518818
  49.4324021  83.5292185  47.9673707  49.2969696  84.3743721  48.3958555
  49.9733834  83.7311463  47.2039641  45.9191361  69.6083765  64.6288063
  45.5258307  69.0549964  65.3035707  46.7357501  69.9194344  65.0194580
  42.8853419  81.0467623  48.5401632  43.3977939  81.8410874  48.6907197
  43.5376132  80.3493914  48.4735234  48.8359322  71.0241644  62.2208319
  49.5769035  71.6248797  62.1412782  49.0677245  70.2819282  61.6626362
  43.9800660  76.2098011  60.4986549  43.8654175  75.3083269  60.7993648
  43.1245178  76.4561708  60.1471365  52.7816485  67.0522747  56.4972601
  52.4380754  67.9424389  56.4211711  53.1495448  66.8624405  55.6342186
  40.8502336  79.3756278  49.3161203  41.6877558  79.7853286  49.0994911
  41.0280603  78.4355720  49.2861397  52.7466768  77.0431358  45.0045036
  52.2313391  77.8135963  45.2433423  52.4744076  76.3696494  45.6278097
  50.3313879  71.8881059  50.0630274  49.4755475  71.4987909  49.8835913
  50.7440830  71.9673020  49.2030060  51.8613025  69.4227402  54.4621834
  51.3577821  69.3857537  53.6489639  52.1543632  70.3320145  54.5218491
  48.1055911  69.5066132  53.4688016  48.9708908  69.3108941  53.1093905
  48.1733420  69.2776484  54.3957373  57.7201042  79.7963713  46.9398209
  56.9430485  79.4574872  46.4953372  58.3992523  79.8016336  46.2653174
  52.5353071  74.9158450  46.8304817  52.2303206  75.2304600  47.6814960
  53.4883513  74.9939870  46.8732150  50.9799503  81.0748674  48.4797771
  50.4520864  80.3401433  48.1671009  50.4787005  81.8523350  48.2337739
  55.9592349  79.2697694  53.5964817  55.3016023  79.9596956  53.6844946
  56.7632748  79.6594126  53.9398804  45.7118230  71.7368340  50.8404383
  46.2861982  71.5143521  50.1077576  46.2989213  71.8057034  51.5932984
  54.7697807  77.6242067  51.6468759  55.2829689  78.2572059  52.1490469
  55.4199031  77.0243262  51.2812119  46.0387817  73.7672801  44.8600268
  45.2025130  74.1047487  45.1809543  45.8992587  73.6321781  43.9227405
  48.0140898  68.6109589  49.5679452  47.3605310  68.2958606  48.9436067
  47.9721372  67.9885329  50.2939275  49.1252103  78.8928884  41.4832744
  48.2179165  78.6618137  41.6823893  49.6223135  78.0966503  41.6706726
  51.2478638  75.0991522  53.8927100  50.3301200  75.3206469  53.7348788
  51.6638782  75.1737833  53.0338807  52.0313686  76.4982938  49.0229780
  52.7785505  77.0104335  48.7136902  52.3005276  76.1766991  49.8834174
  50.3040336  78.9941479  46.0056734  49.3951556  78.7100512  46.1029204
  50.3335420  79.4140557  45.1460041  55.5359604  82.6048068  49.7747902
  55.0821931  81.7638978  49.8313092  54.9053570  83.2409467  50.1122682
  54.4792523  73.5340054  51.0048569  53.7415280  73.0217441  51.3358812
  54.7319297  73.0940436  50.1931846  54.5804151  66.3116306  51.5990339
  54.8863027  65.4513670  51.3116254  55.3056755  66.9033927  51.3989332
  40.8728507  76.7146993  49.9871936  40.6752906  76.1216354  49.2623003
  40.3175171  76.4099203  50.7047875  48.8525230  76.6070099  52.1066530
  48.9073840  75.6543936  52.0309006  48.0416432  76.7629538  52.5907828
  50.0016424  80.5350222  43.3444813  49.5635854  79.8186081  42.8850450
  50.7426865  80.7626337  42.7829904  46.7917590  75.2247159  49.8656908
  45.9785456  75.5241330  50.2722101  47.2876584  74.8302848  50.5831391
  52.3891802  75.6888984  58.6971802  52.7441190  75.9160457  59.5566268
  53.0363933  76.0207360  58.0749058  58.1189539  78.8107419  49.4021131
  57.9807437  79.0009015  48.4742321  57.7625758  79.5726802  49.8589183
  46.2831665  72.7965515  55.4818143  46.9231044  72.6554274  54.7841107
  45.4509196  72.5100028  55.1056745  58.1458918  80.8783946  54.4132403
  58.5795425  80.7859236  55.2615457  58.8590499  80.8541447  53.7752419
  47.0591969  82.0967945  51.5953136  47.8532567  81.6018265  51.3935711
  46.3483661  81.5685808  51.2320841  43.3674732  76.2411027  47.6712889
  42.4372320  76.1795482  47.8882851  43.4632204  75.7186980  46.8749530
  43.2860281  72.7665840  50.2591130  43.5467099  73.6811173  50.1500291
  44.1077454  72.2990282  50.4087743  44.7585207  74.1803597  57.4289955
  45.4308260  73.9720959  56.7802604  43.9314993  73.9825683  56.9895187
  50.6610779  70.8065538  59.4455616  50.0138694  71.5055487  59.3520092
  51.4311794  71.2401682  59.8131864  50.8374913  78.6446303  57.5052435
  51.7666973  78.7957462  57.3321403  50.4165943  78.7330323  56.6501082
  49.6363245  82.6696967  55.2750973  49.4974331  82.3015751  56.1476911
  48.8477841  83.1844606  55.1034931  51.1868460  82.0478570  52.6639811
  50.8518293  82.0079340  53.5597461  50.6872406  81.3823286  52.1910221
  45.1612704  77.4546200  58.1892392  45.0232502  76.7226439  58.7903931
  46.0717627  77.3655100  57.9076580  54.1227652  79.3934604  42.9376870
  53.5056822  78.6681432  42.8409923  53.6544140  80.1543964  42.5943945
  47.7895005  77.1666159  57.6776072  48.4994623  76.5259351  57.6362690
  47.7464313  77.4179054  58.6002252  46.5023939  74.1531377  59.4971711
  45.9661296  73.7022115  60.1493307  45.9140647  74.2877286  58.7542175
  45.9126198  73.6120028  42.0598175  45.0355664  73.4908829  41.6960421
  46.3883951  72.8206107  41.8077063  37.4328338  78.3997188  52.1539682
  38.1199378  78.0858918  51.5660697  37.2776466  79.3038553  51.8806933
  42.2363060  73.2887385  56.5824706  42.1521249  72.6813054  55.8475115
  41.4145766  73.7796403  56.5834202  52.4086774  71.7740948  51.9494901
  52.9055473  71.0210911  51.6295971  51.6373755  71.8105265  51.3838110
  60.2616531  77.4781314  53.5913192  60.2506407  78.3606029  53.2207125
  59.3933911  77.1252865  53.3967729  53.4916554  80.5312635  49.5233324
  52.5572833  80.6514098  49.3538028  53.6693223  79.6285102  49.2593334
  48.9921742  73.9158331  51.6766585  48.6219530  73.3629372  52.3647491
  49.4880835  73.3116465  51.1241585  56.8789106  76.3729955  50.0583358
  57.3449558  77.2057946  49.9843661  57.3296606  75.9074936  50.7628617
  54.9465337  82.7173776  47.0569510  55.2225181  82.6030371  47.9663384
  54.0769836  82.3191261  47.0181683  54.8505769  68.7410542  54.0974259
  53.9368848  68.9714769  54.2656466  55.2798870  68.8248986  54.9488292
  54.6212227  76.9300434  56.5974153  53.9683677  77.1776341  55.9426606
  54.9992607  76.1164572  56.2636631  37.0096314  76.4797781  54.4257149
  37.0480413  75.9461372  55.2194267  36.5036607  75.9532987  53.8068126
  44.3887076  71.3262322  57.9219691  44.4528403  72.1877153  57.5097089
  44.3254196  70.7136324  57.1892050  43.8639349  73.3985455  61.5692726
  44.4911387  73.0162532  62.1830250  43.0067268  73.1799656  61.9348418
  40.6404891  75.2061884  47.5011080  40.9358333  74.2972562  47.4478134
  39.7392927  75.1849623  47.1792083  44.1699138  73.2817880  53.4838629
  43.4485724  73.8953848  53.3446102  44.9592394  73.8175645  53.4055275
  46.9725452  70.6172307  59.7579281  47.4959854  70.8634603  60.5205590
  46.7537785  71.4492342  59.3382418  42.3692733  72.8875981  47.6250405
  42.0405439  72.0073360  47.4425511  42.7232104  72.8323650  48.5126795
  51.6172312  84.5230884  52.1345391  51.4697274  83.5947591  52.3152961
  52.4425805  84.5450975  51.6502466  45.4834556  73.1748951  47.9925883
  45.8230629  73.7034872  47.2704492  45.9306677  73.5129357  48.7684450
  48.1777997  71.5586002  57.4428951  47.8374817  70.7593815  57.8449631
  47.4717003  71.8587713  56.8705784  48.8294469  68.6435314  55.8956274
  49.6520538  68.1695792  55.7735165  49.0732532  69.4225798  56.3954961
  47.4702703  71.6723573  46.1919176  48.1911066  72.0504825  45.6882893
  46.8468007  72.3912449  46.2954154  51.6133826  72.3768722  47.1277508
  51.8297441  73.2593360  46.8266336  51.1327893  71.9854935  46.3983150
  46.3533048  75.3354435  53.7048253  46.2077628  75.6494738  54.5972534
  45.8758251  75.9539335  53.1519152  48.2129430  72.3256983  53.7529142
  48.1990999  71.4298076  53.4161440  48.9301859  72.3327647  54.3867428
  50.0655561  72.7594323  55.7982270  49.8073339  73.6811394  55.7966600
  49.5340602  72.3624758  56.4882734  40.8278710  77.8759779  56.6435914
  40.2832178  78.6519587  56.7756188  41.7058060  78.2230584  56.4855035
  47.6166326  71.2071363  49.0216713  47.7382238  70.2788009  49.2207600
  47.3268369  71.2210049  48.1095028  50.4857517  68.8926274  52.1583432
  50.5079214  68.9565607  51.2035412  50.9025576  68.0530782  52.3523939
  60.8641141  78.6281533  50.1962655  61.3072287  77.8788858  49.7981778
  59.9867651  78.6191669  49.8136387  41.6144732  77.0029676  59.5366071
  40.8726468  77.1512311  60.1230701  41.2937476  77.2637941  58.6732820
  47.1007406  72.7203361  63.2306645  47.1495561  73.5965483  62.8484415
  47.6429920  72.1780754  62.6578288  46.5896385  82.7925496  47.1132600
  46.7384506  83.4760960  46.4599272  47.3962829  82.7730586  47.6282055
  49.3306694  73.4734733  59.9853004  48.4610004  73.7668299  59.7135592
  49.5666175  74.0575178  60.7060267  44.3449018  78.8190673  48.1193669
  44.0995060  77.9153003  48.3173879  44.5144933  78.8207824  47.1773147
  52.0345728  69.6914350  57.5018424  52.5527672  70.4275377  57.1764913
  51.6800861  69.9978343  58.3365183  43.6144666  74.5519031  45.6179830
  42.9213911  74.6263386  44.9619866  43.3696418  73.7879375  46.1401347
  52.2858322  66.1114632  53.0219321  52.5660076  65.4437821  53.6479747
  53.0708929  66.3043728  52.5093985  56.1567181  74.5332266  56.7690896
  57.1084604  74.6330364  56.7903120  55.9870631  73.7410535  57.2788980
  54.1781560  71.6187850  56.9550297  53.5831492  71.8992862  56.2596785
  53.8931257  72.1081751  57.7267038  58.6355259  77.7538386  55.8833196
  58.6031579  76.8154387  56.0692879  59.2455882  77.8322423  55.1499020
  50.4738589  76.6234439  41.9260400  51.4197694  76.4940647  41.9948818
  50.0952834  75.8849101  42.4029828  58.7849747  74.5449429  55.9291479
  58.2688796  73.7607886  55.7421408  59.6689696  74.2168146  56.0937998
  56.4460474  68.2890445  51.8887291  56.2485295  67.9805533  52.7730623
  57.0560179  69.0152084  52.0185221  62.5347105  76.9562255  55.6213684
  61.8080269  76.8218220  55.0130175  62.1194392  77.2639084  56.4270402
  48.6581507  74.5484415  41.8615285  47.7512962  74.2517528  41.9377998
  48.9357488  74.2514234  40.9949571  39.5759447  75.8690779  52.3114331
  39.2562231  75.0156087  52.0188705  39.0292875  76.0839357  53.0672299
  43.3539354  78.5853220  56.0283838  43.5725364  79.5170328  56.0471872
  43.7665128  78.2261194  56.8138642  50.2743572  69.0921305  48.0159526
  49.4644301  68.7468390  48.3914772  50.9627989  68.7828849  48.6047138
  52.2034121  68.1699352  49.6383823  52.7565159  68.5894805  50.2973846
  52.4404207  67.2435100  49.6806779  47.4280291  71.4071351  42.0027264
  48.2899455  71.7326249  42.2623081  47.6130635  70.6202847  41.4900330
  39.4447707  79.4893690  54.2807453  38.7511178  79.0747643  53.7677407
  40.1920698  79.5314227  53.6840872  55.5812928  70.2799877  49.1462487
  55.0011597  70.9384681  48.7640539  55.3148860  69.4577222  48.7349905
  54.0316494  69.6804935  51.3483807  54.5316272  69.7921469  50.5398126
  54.6752102  69.3765988  51.9884616  41.3584449  79.4211944  52.1573468
  41.3355138  79.5199631  51.2055351  41.6685086  80.2677095  52.4790634
  44.0171827  81.4788099  56.2720082  44.9715081  81.4472041  56.2050014
  43.8184351  81.0178723  57.0870308  44.6071209  80.0489215  58.8390880
  45.4264098  80.5433294  58.8625717  44.8808017  79.1321183  58.8108447
  54.3637806  72.4399967  48.2018835  53.4763661  72.7249618  47.9839030
  54.7791795  72.2793731  47.3546112  57.7152342  72.4646488  51.9173175
  58.4912732  72.9542941  52.1897791  56.9900476  72.8904543  52.3745044
  60.1524900  73.1774108  52.9747115  60.7469391  72.9369844  52.2640423
  60.2251484  72.4581238  53.6020651  53.5081019  82.2044642  42.2966855
  54.2116869  82.4094645  42.9124511  52.7843668  82.7721404  42.5615939
  54.3378829  77.9554503  48.4169125  54.2814031  78.4123055  47.5776758
  54.8907172  77.1945188  48.2391968  58.1483635  73.7444235  49.2419245
  57.8920570  73.3440871  50.0727453  57.5236503  74.4588029  49.1169384
  62.4595973  76.4840309  51.7490536  61.8995531  76.5533498  52.5222098
  61.8539477  76.3081293  51.0290033  55.4167717  82.6427171  44.3465315
  56.2513320  82.2108370  44.1642790  55.2552059  82.4709185  45.2742210
  55.0713609  79.1459285  45.7121655  55.0162412  78.9803556  44.7710099
  54.4459664  79.8535318  45.8683844  39.8606124  74.3827349  59.5383077
  40.5064987  73.8726303  60.0270302  39.6523275  75.1196031  60.1126502
  48.3809734  68.6467394  45.2906973  48.3688404  69.5909234  45.4475244
  49.2733156  68.4637539  44.9966434  52.1961854  65.2410170  49.5452910
  51.4294249  64.6868657  49.6909592  52.6072559  65.3132039  50.4067061
  44.2003615  71.5294966  63.6358091  45.0635076  71.1731771  63.8461416
  43.6269025  71.1908861  64.3233495  20.6876975   8.8491274  41.1665799
  21.3255385   8.7298022  40.4629139  20.5697818   9.7972118  41.2253751
  17.4966681   8.8018702  41.1027323  17.1585193   8.6859767  40.2147858
  18.3656449   8.4009868  41.0828330  13.3553497  10.6554179  37.0924214
  12.7918362  10.5644116  36.3240502  13.2405892   9.8354083  37.5726707
  17.9786464   9.9553554  47.0613529  17.9675105   9.5606352  46.1894033
  18.1407104   9.2219627  47.6547300  10.9017929  12.1505370  39.9308435
  11.6939221  11.8096195  39.5154734  11.1414579  12.2600346  40.8510588
  18.9353056  14.3225147  32.4038679  18.2841035  14.9079227  32.0172693
  19.7297418  14.8531341  32.4633717  12.8608683  11.4114284  32.8025814
  13.6339559  10.8643271  32.6638689  13.2134082  12.2758533  33.0140275
  14.6993725  12.7390666  46.0092713  14.4083591  13.6436297  45.8939379
  15.3350710  12.7807194  46.7236782  15.6249932  10.1167515  42.5994073
  16.2213504   9.8923537  41.8851035  15.6824904   9.3752260  43.2019520
  15.1974961   7.5706950  30.4344264  15.4500481   7.0488471  29.6727727
  14.2599520   7.4073095  30.5370947  20.2418243   6.5742728  38.2419007
  21.0281333   6.1562151  37.8909424  20.5056948   7.4788820  38.4100655
  20.4128321  12.0115579  32.9407664  19.7774154  12.0850205  33.6528568
  20.0825727  12.6009177  32.2626743  25.6426671   6.5117961  39.1451985
  26.3751842   5.9417178  39.3789815  24.8866026   6.1239562  39.5858491
  14.9171249   9.4735056  32.6368638  14.8007507   8.7979959  33.3049723
  15.0273509   8.9867430  31.8200792  17.2602790   8.9345203  36.3415328
  16.8960997   8.4075824  37.0528249  18.1169906   8.5443672  36.1681813
  23.1652091   0.2239536  43.6046594  22.8335416   1.0934946  43.3807809
  22.5697704  -0.0924180  44.2840624  16.9008277   3.9635103  31.3376676
  17.0682680   4.8315339  31.7047147  16.7105446   4.1262384  30.4137965
  19.6583610  12.4252082  43.0042507  19.3584333  13.3277120  42.8958314
  19.3134670  12.1584265  43.8563659  13.1096092   8.8765878  39.0379211
  12.1846588   8.7442092  39.2456903  13.3580505   9.6560098  39.5349153
  23.0580754   4.9434622  40.6839944  22.1497632   4.8750030  40.3898705
  23.0068350   5.4206567  41.5121769  16.8797498   6.4192760  32.3223343
  16.7597123   6.8649811  33.1608823  16.1850086   6.7678078  31.7636881
  10.4704903   8.5199152  39.8723000  10.5997284   8.7733631  40.7862412
   9.7902354   9.1126860  39.5527655  14.6404390  19.1896402  35.9713474
  14.5628420  20.1404227  36.0501955  14.0366034  18.8442274  36.6288401
  17.1321620   6.3624267  48.6274841  16.3554954   6.9218187  48.6177706
  17.7712183   6.8481050  49.1489711  24.9242401   3.1451060  42.4617818
  24.2816781   3.4383593  41.8157612  24.4197329   3.0303980  43.2671014
  22.5782564   6.8914233  33.1503677  23.4900420   7.1241620  32.9751375
  22.0692211   7.4751277  32.5878756  15.3867992   9.1709721  48.1892808
  16.1282677   9.7094765  47.9127632  14.6804978   9.7976009  48.3464360
  20.8623332  11.3138861  46.7864970  21.2706688  10.8721272  46.0419602
  20.1400593  10.7391489  47.0399163  17.2154402   6.2511468  44.1598527
  18.0615597   6.6750881  44.3033176  17.1553040   5.5945092  44.8537090
  21.1852147  11.8740052  40.5417259  20.5561009  12.0385766  39.8393326
  20.7977809  12.2881661  41.3128223  25.0641378  12.8094490  37.8961622
  24.3792417  13.1893391  37.3458656  25.1485228  13.4189816  38.6293570
  20.3653847   3.9115836  45.8179700  20.1214779   4.6657897  45.2813976
  20.6413778   4.2901184  46.6526947  22.3192310  10.4554449  44.4956966
  22.5309205  11.0986209  43.8191347  22.2722058   9.6216765  44.0278896
  19.9218539   3.0672269  41.3993538  19.0603018   3.3653523  41.6910276
  19.9480974   3.2842668  40.4674571  16.7380108  11.6114460  37.8067344
  17.2018454  11.8902163  37.0171966  16.4736907  10.7097904  37.6240434
  13.6304190  11.1585941  40.7447107  14.2005547  11.5873210  40.1064591
  14.2212301  10.8768526  41.4431293  15.6748995   7.7337612  34.6156909
  16.3773038   8.1858656  35.0830835  15.3429623   7.0921431  35.2436802
  14.1229356   6.3249369  48.9908118  13.4928017   7.0065650  49.2243515
  14.0165444   6.2132450  48.0461256   9.4174328   5.9921165  39.9174042
   8.6273382   6.2478693  39.4414153   9.9085576   6.8069503  40.0226083
  23.4338138  13.3326404  42.6679323  24.2555582  12.9306591  42.3862005
  23.4300541  13.2294638  43.6195439  11.3689074   6.3565744  36.8757519
  10.5720237   6.4684438  37.3941015  11.1414666   6.6952396  36.0098410
  17.1994741  12.8810447  44.8240034  17.2639174  13.3430855  45.6598206
  16.4905665  12.2507812  44.9522344  31.5244131   9.6765153  39.0164295
  30.7707839   9.1072551  38.8608299  31.6591672   9.6427817  39.9634929
  16.9142759  14.5478555  34.6919014  16.7788434  15.3930091  35.1203862
  17.4552572  14.7497832  33.9284948  10.3672157  12.0653993  35.2646939
  10.8796677  12.8597243  35.4152504  11.0194869  11.3680283  35.1980541
  12.1767041  15.1819749  37.3469692  12.3533670  16.1037714  37.1590676
  12.9723875  14.8678168  37.7764072  16.3178060   2.0428014  48.9453626
  17.0587773   2.6435167  48.8658088  16.5495983   1.3005652  48.3871668
  11.4619398   7.2284381  47.2231855  11.3472913   6.3269638  47.5238954
  10.6063916   7.4748078  46.8716672  18.5411236  15.1702121  48.8219356
  18.0975090  14.3838500  48.5040261  19.2028449  15.3581272  48.1563247
  13.2998357  16.6997923  43.3480035  13.8505782  16.5714986  42.5757029
  12.4609833  16.9992812  42.9974927  20.6392474  15.4504921  46.8500757
  20.6210949  16.2713802  46.3581027  21.5612394  15.3258996  47.0750899
  17.0965528  12.9649051  47.6924266  17.6293865  12.2037339  47.4623574
  16.5679609  12.6722703  48.4348420  20.2635223  -1.9290883  43.2217907
  19.9199492  -1.0389242  43.1457018  20.6314185  -2.1189226  42.3587492
   8.3321073  10.3942647  36.0406510   9.1696295  10.8039656  35.8240217
   8.5099341   9.4542089  36.0106704  20.2285505   8.0617728  31.7290343
  19.7132129   8.8322332  31.9678730  19.9562814   7.3882864  32.3523404
  17.8132616   2.9067429  36.7875581  16.9574213   2.5174279  36.6081220
  18.2259568   2.9859389  35.9275366  19.3431763   0.4413772  41.1867141
  18.8396559   0.4043907  40.3734946  19.6362370   1.3506515  41.2463797
  25.2019780  10.8150082  33.6643516  24.4249222  10.4761242  33.2198678
  25.8811261  10.8202706  32.9898481  20.0171809   5.9344820  33.5550124
  19.7121944   6.2490969  34.4060267  20.9702251   6.0126240  33.5977457
  18.4618240  12.0935043  35.2043078  17.9339602  11.3587803  34.8916315
  17.9605743  12.8709720  34.9583046  23.4411086  10.2884064  40.3210124
  22.7834761  10.9783325  40.4090253  24.2451486  10.6780496  40.6644110
  22.2516545   8.6428436  38.3714066  22.7648427   9.2758428  38.8735776
  22.9017769   8.0429632  38.0057426  13.5206555   4.7859171  31.5845575
  12.6843867   5.1233857  31.9054849  13.3811325   4.6508150  30.6472712
  16.6070841   9.9115253  28.2078051  15.6997902   9.6804507  28.4069200
  17.1041873   9.1152873  28.3952032  19.5138919  18.6212761  31.1274737
  18.8400618  18.9244457  31.7359695  19.9004741  19.4241841  30.7780194
  18.7297376   6.1177892  40.6172406  17.8119937   6.3392839  40.4594094
  19.1457520   6.1924202  39.7584114  19.5132424   7.5169308  35.7475087
  20.2604243   8.0290705  35.4382209  19.7824013   7.1953360  36.6079480
  17.7859074  10.0127848  32.7302041  16.8770293   9.7286881  32.8274511
  17.8154158  10.4326927  31.8705348  23.0178341  13.6234438  36.4993208
  22.5640669  12.7825348  36.5558399  22.3872308  14.2595836  36.8367989
  21.9611261   4.5526424  37.7293876  21.2234018   4.0403810  38.0604118
  22.2138035   4.1126805  36.9177153  21.4611281  15.4610935  37.4343027
  21.7534255  16.0215992  36.7155392  21.9709901  15.7539496  38.1896186
  22.0622888  -2.6697324  38.3235645  22.3681765  -3.5299961  38.0361560
  22.7875493  -2.0779704  38.1234639   8.3547244   7.7333362  36.7117243
   8.1571644   7.1402723  35.9868310   7.7993908   7.4285573  37.4293182
  16.3343968   7.6256469  38.8311836  16.3892578   6.6730305  38.7554313
  15.5235170   7.7815908  39.3153135  17.4835162  11.5536592  30.0690119
  17.0454592  10.8372451  29.6095757  18.2245603  11.7812707  29.5075211
  14.2736328   6.2433529  36.5902215  13.4604194   6.5427699  36.9967407
  14.7695322   5.8489217  37.3076697  16.4244906  16.2391286  38.5236480
  16.3821085  16.4652132  37.5945012  17.3407605  16.0054660  38.6722281
  19.8710540   6.7075353  45.4217109  20.2259927   6.9346826  46.2811575
  20.5182671   7.0393730  44.7994364  25.6008277   9.8293789  36.1266438
  25.4626175  10.0195385  35.1987627  25.2444495  10.5913172  36.5834489
  13.7650403   3.8151884  42.2063450  14.4049782   3.6740643  41.5086413
  12.9327933   3.5286398  41.8302052  25.6277656  11.8970316  41.1377710
  26.0614163  11.8045605  41.9860764  26.3409237  11.8727817  40.4997726
  14.5410707  13.1154315  38.3198443  15.3351305  12.6204635  38.1181017
  13.8302399  12.5872178  37.9566148  19.3605551  15.4972410  42.6710810
  19.4142573  16.0663346  43.4388526  18.4920333  15.6674295  42.3064847
  10.8493470   7.2597396  34.3958195   9.9191058   7.1981852  34.6128157
  10.9450942   6.7373349  33.5994836  12.2403945   5.1989966  44.1535261
  12.9126998   4.9907329  43.5047910  11.4133731   5.0012052  43.7140494
  26.4893206  11.9394017  43.6710595  26.6829096  12.8439827  43.9169870
  26.3893824  11.4801436  44.5049180  18.1429517   1.8251907  46.1700922
  17.4957432   2.5241857  46.0765399  18.9130532   2.2588051  46.5377170
  21.5508314  12.0900759  49.2451476  21.3993821  11.8611311  48.3281559
  21.5412994  13.0471361  49.2582821  18.3193651   9.6632672  44.2297742
  19.2485711   9.8143832  44.0566709  17.8984681   9.7516693  43.3746388
  17.1181983  13.6883337  41.9996280  16.9793068  13.3202121  42.8722218
  16.3296579  14.2030976  41.8280237  17.7130135  18.7892433  33.3421816
  17.8881890  18.3180476  34.1567439  17.0262923  19.4158199  33.5703077
  18.6687198  13.0664939  39.3885117  18.3337030  13.0265709  40.2842767
  18.1691143  12.4009655  38.9155528  12.6431442   8.4732569  44.9137699
  12.5051240   7.7412808  45.5149238  13.5536365   8.3841469  44.6321886
  21.6046389  10.4120974  29.6622177  20.9875560   9.6867802  29.5655230
  21.1362878  11.1730334  29.3189251  15.2713742   8.1852529  44.4021378
  15.9813361   7.5445721  44.3607997  15.2283051   8.4365424  45.3247559
  23.2600521  15.1219882  47.3227957  23.2013067  14.4379102  46.6558540
  23.6620039  15.8638872  46.8708583  13.9842676   5.1717747  46.2217018
  13.4480033   4.7208485  46.8738614  13.3959385   5.3063655  45.4787482
  12.2791220  21.9381796  40.1161676  12.5187818  22.5700320  40.7940695
  11.4360416  21.5869836  40.4027036  13.3944935   4.6306398  28.7843481
  12.5174402   4.5095199  28.4205728  13.8702688   3.8392476  28.5322370
  23.2617928  13.0859466  45.5541937  22.3744707  12.7485388  45.6768336
  23.8316479  12.3542497  45.7910702   4.9147076   9.4183558  38.8784988
   5.6018115   9.1045288  38.2906004   4.7595204  10.3224922  38.6052240
  16.7919082  17.7460918  42.5203180  16.7189253  18.5515890  43.0322485
  16.3496475  17.9452884  41.6951202  16.5808861  16.9832688  36.0306002
  15.7976383  17.5254369  36.1244226  17.2801607  17.5006668  36.4300243
  19.8905512   2.7927318  38.6740207  20.3874211   2.0397280  38.3541277
  19.1192493   2.8291634  38.1083417  27.7435269   8.4967683  40.3158499
  27.7325145   9.3792399  39.9452432  26.8752648   8.1439234  40.1213036
  19.2517765  17.6447752  44.6761339  19.9645738  18.2795217  44.6037240
  18.7607794  17.7411618  43.8601341  20.9735292  11.5499005  36.2478631
  20.0391571  11.6700467  36.0783335  21.1511961  10.6471472  35.9838640
  16.4740480   4.9344701  38.4011892  16.1038268   4.3815741  39.0892797
  16.9699573   4.3302834  37.8486892  24.3607844   7.3916324  36.7828665
  24.8268296   8.2244316  36.7088967  24.8115344   6.9261306  37.4873923
  14.3029679  15.3942196  45.4966910  15.0039138  16.0278679  45.6496304
  13.8324794  15.7356927  44.7362549  22.4284075  13.7360146  33.7814817
  22.7043919  13.6216740  34.6908691  21.5588573  13.3377630  33.7426990
  22.3324506  -0.2403089  40.8219566  21.4187586  -0.0098862  40.9901773
  22.7617608  -0.1564645  41.6733598  22.1030965   7.9486803  43.3219460
  21.4502415   8.1962711  42.6671913  22.4811345   7.1350941  42.9881937
  19.0638139  17.9846496  37.4247630  19.2460533  17.1668152  37.8875383
  19.8871125  18.2014189  36.9872520  19.3980304  16.9114682  34.6862679
  19.9268071  16.4007136  34.0732841  19.6608524  16.5957212  35.5508212
  18.1518538   8.6906614  49.8085497  17.4759175   8.5900744  50.4787872
  18.9746172   8.5345828  50.2721494   9.8997397  14.9278551  42.4298012
  10.4850834  14.1822239  42.5625917   9.7022235  15.2382508  43.3134676
  12.7536052  17.9629798  37.4460455  12.0846427  18.4475926  36.9624495
  12.6148922  18.2099019  38.3603833  16.8941321  19.9973542  44.0443113
  17.4459629  20.1605163  44.8092198  17.2347514  20.5877980  43.3723138
  21.7452195  14.8234799  49.8991768  22.2892099  15.4364758  49.4046722
  21.1639040  15.3814378  50.4158781  20.0309708  17.9455517  41.0306795
  19.9060847  17.1445257  40.5217741  20.6888799  18.4401711  40.5420765
  11.6517876   4.3004250  40.2083936  10.9304462   4.9140217  40.0691409
  12.4411132   4.8362015  40.1300582  22.0944616  15.7464537  42.6586345
  21.1474952  15.6269889  42.5864672  22.4427389  14.8587035  42.7412607
  19.0991050  15.5417254  38.8590698  18.9516012  14.6133961  39.0398268
  19.9244543  15.5637344  38.3747773  12.9653294   4.1935321  34.7171190
  13.3049366   4.7221242  33.9949798  13.4125414   4.5315727  35.4929756
  22.7025172  16.3645812  39.9455570  23.6271719  16.1588674  39.8080022
  22.5340475  16.1162213  40.8544912  15.6596735   2.5772371  44.1674258
  15.3193555   1.7780184  44.5694938  14.9535741   2.8774082  43.5951091
  14.9521441   2.6909942  32.9164483  15.6729804   3.0691195  32.4128199
  14.3286745   3.4098819  33.0199461  19.0952564   3.3955091  33.8522815
  19.3116178   4.2779729  33.5511643  18.6146631   3.0041305  33.1228457
  13.8351785   6.3540804  40.4293559  13.6896366   6.6681108  41.3217841
  13.3576989   6.9725705  39.8764458  15.6948168   3.3443352  40.4774449
  15.6809737   2.4484446  40.1406747  16.4120596   3.3514016  41.1112735
  17.5474299   3.7780693  42.5227576  17.2892077   4.6997763  42.5211907
  17.0159339   3.3811127  43.2128041  22.4920488  16.8831480  35.3017662
  22.6657365  16.3177902  34.5491514  22.9849379  17.6832375  35.1197152
   8.3097448   8.8946149  43.3681221   7.7650916   9.6705957  43.5001495
   9.1876797   9.2416953  43.2100342  28.3459879   9.6467903  36.9207962
  28.7891025   8.8975228  36.5227085  27.4686389   9.6378039  36.5381694
  23.4795660  16.1998244  32.4014560  24.1746565  16.8204937  32.6201875
  23.8218810  15.3493595  32.6766938   9.0963469   8.0216045  46.2611378
   8.3545205   8.1698680  46.8476008   8.7756214   8.2824311  45.3978127
  25.3787083  13.6497950  33.9301891  25.9038407  13.9885222  33.2051211
  25.2909436  12.7144965  33.7465026  17.0407132  17.5632023  46.0591768
  17.3494258  17.3181170  46.9314467  17.8382614  17.7678662  45.5710638
  17.0627744  19.7169933  38.2897144  16.6232734  19.2246312  38.9830001
  17.8135861  19.1742901  38.0489219   9.5420083  15.9081474  38.2921772
  10.3678103  15.6085246  37.9120416   9.1914135  15.1389096  38.7411561
  14.5101616  15.2607942  40.3619446  13.8881626  14.5978647  40.0621674
  15.1806483  15.2869074  39.6793094   7.7428688  13.8267800  39.2510706
   6.9060596  13.3989975  39.0694707   7.7152334  14.0200244  40.1881497
  14.5826144   3.7389730  49.9551952  14.6314299   4.6151853  49.5729721
  15.1248658   3.1967123  49.3823595  25.0680989  14.2830853  49.2353089
  24.2776533  14.2654992  48.6957588  24.8314344  14.8219147  49.9902125
  25.1878864  11.1323320  46.5485817  25.2376869  10.9673327  47.4901340
  25.0792788  10.2650579  46.1583698  14.0715123  13.8111865  33.8377906
  14.2203244  14.4947330  33.1844579  14.8781567  13.7916955  34.3527362
  22.4782627   7.1154248  47.8645124  23.3792490   6.9760713  47.5729122
  22.5530601   7.2808703  48.8043302  16.8125432   4.4921102  46.7098310
  15.9428742   4.7854669  46.4380899  17.0484913   5.0761547  47.4305574
  26.6897061  13.5520261  46.7927839  26.3981870  13.9150242  47.6291300
  26.0769193  12.8387270  46.6141171  27.8892744  11.1173141  39.3130409
  28.7239635  11.5562945  39.4767970  28.0251872  10.6411794  38.4938655
  24.9384250   8.6752876  45.2607897  25.4138371   8.8680522  44.4526748
  24.0149815   8.7312062  45.0151281  11.8267756   9.8377043  34.8438975
  11.5813798   8.9339373  35.0419185  11.9963671   9.8394193  33.9018453
  19.5164466   0.7100719  44.2263731  20.0346410   1.4461746  43.9010219
  19.1619599   1.0164713  45.0610490  11.0963404   5.5705401  32.3425137
  10.4032649   5.6449756  31.6865173  10.8515156   4.8065744  32.8646654
  17.5710529  16.3059996  31.3089654  16.9984496  16.9250183  30.8560126
  18.1443322  16.8559358  31.8429576  23.6385919   5.5518636  43.4936203
  24.5903341   5.6516734  43.5148427  23.4689369   4.7596904  44.0034287
  21.6600298   2.6374219  43.6795603  21.0650230   2.9179232  42.9842092
  21.3749995   3.1268120  44.4512345  20.7907788  16.5897146  32.4398236
  21.7238462  16.5242708  32.6431112  20.7031001  17.4253413  31.9812769
  23.4195805  15.9063016  29.4002184  23.3409437  15.5722880  30.2937941
  24.2405472  16.3984784  29.3993656  26.1173996   8.7724756  42.6078502
  26.0850316   7.8340756  42.7938186  26.7274620   8.8508792  41.8744327
  17.9557327   7.6420809  28.6505706  18.9016432   7.5127017  28.7194124
  17.5771572   6.9035471  29.1275134  26.2668485   5.5635799  42.6536785
  25.7507533   4.7794256  42.4666714  27.1508433   5.2354516  42.8183305
  23.9279212  -0.6923185  38.6132598  23.7304033  -1.0008097  39.4975930
  24.5378917   0.0338454  38.7430528  31.9350546   9.8340762  41.7484539
  32.6653935   9.5726051  42.3092242  31.3257492   9.0969484  41.7886607
  30.0165843   7.9748625  42.3458990  29.2899007   7.8404590  41.7375482
  29.6013130   8.2825454  43.1515708  17.8396020  11.6938555  50.1106363
  18.7599029  11.8717154  50.3046410  17.8045603  10.7494600  49.9586062
  16.1400244   5.5670785  28.5860591  15.2331700   5.2703898  28.6623305
  16.4176225   5.2700603  27.7194878  10.8358092   9.6039589  42.7529144
  11.0544102  10.5356697  42.7717178  11.2483866   9.2447564  43.5383948
  19.6852858  -0.8114278  36.3629129  20.2383897  -0.3918825  37.0219152
  19.9222945  -1.7378530  36.4052085  15.7085958   5.1772795  52.1431893
  15.6082684   6.1267152  52.0743984  15.4907500   4.8491034  51.2707963
  14.9099029   2.4257720  28.7272571  15.7718193   2.7512619  28.9868388
  15.0949373   1.6389216  28.2145636   6.9266445  10.5080060  41.0052759
   6.2329916  10.0934013  40.4922714   7.6739436  10.5500596  40.4086178
  23.0631665   1.2986247  35.8707794  22.4830334   1.9571051  35.4885846
  22.7967598   0.4763591  35.4595211  21.5135232   0.6991304  38.0729114
  22.0135010   0.8107839  37.2643433  22.1570840   0.3952357  38.7129922
  15.5717228   8.6069934  50.9596955  15.0884309   9.4070294  51.1660844
  15.6578167   8.6177879  50.0064399   8.8403187  10.4398314  38.8818774
   8.8173875  10.5386001  37.9300657   9.1503824  11.2863464  39.2035940
  11.4990565  12.4974469  42.9965389  12.4533819  12.4658411  42.9295320
  11.3003089  12.0365092  43.8115615  12.0889947  11.0675585  45.5636186
  12.9082836  11.5619663  45.5871024  12.3626755  10.1507553  45.5353754
  21.8456543   3.4586337  34.9264142  20.9582398   3.7435988  34.7084337
  22.2610533   3.2980100  34.0791419  25.1971080   3.4832858  38.6418481
  25.9731470   3.9729310  38.9143098  24.4719214   3.9090912  39.0990351
  27.6343638   4.1960477  39.6992422  28.2288129   3.9556213  38.9885730
  27.7070222   3.4767608  40.3265958   9.8540794  18.0394088  40.0135587
   9.7195262  17.2794489  39.4473585   9.4372856  18.7634988  39.5464375
  20.9899757  13.2231012  29.0212162  21.6935607  13.4281014  29.6369818
  20.2662406  13.7907774  29.2861245  21.8197567   8.9740873  35.1414432
  21.7632769   9.4309424  34.3022064  22.3725910   8.2131558  34.9637275
  25.6302373   4.7630605  35.9664552  25.3739307   4.3627241  36.7972759
  25.0055241   5.4774399  35.8414691  29.9414711   7.5026678  38.4735843
  29.3814269   7.5719867  39.2467405  29.3358214   7.3267663  37.7535339
  13.0109920  18.9363405  40.2254029  12.8942304  19.8808838  40.1232720
  12.1902366  18.6336967  40.6139828  22.8986454  13.6613541  31.0710622
  23.7332058  13.2294739  30.8888097  22.7370797  13.4895555  31.9987516
  22.5532346  10.1645654  32.4366961  22.4981150   9.9989926  31.4955405
  21.9278402  10.8721687  32.5929151  19.8678254  12.4694566  51.7620524
  20.7369413  12.6435218  51.4007159  19.3885005  13.2888983  51.6396253
  14.0364434  19.5891667  43.4409958  14.9391681  19.6215277  43.7576453
  13.8101804  18.6592118  43.4556293  15.7918036  18.3422654  40.1020036
  14.8413667  18.3424515  39.9884409  16.0950522  17.5955388  39.5856071
  24.1947251  25.9846097  37.0924214  23.6312117  25.8936033  36.3240502
  24.0799646  25.1646001  37.5726707  21.7411683  27.4797288  39.9308435
  22.5332975  27.1388113  39.5154734  21.9808333  27.5892263  40.8510588
  23.7002437  26.7406201  32.8025814  24.4733313  26.1935188  32.6638689
  24.0527836  27.6050451  33.0140275  25.5387480  28.0682584  46.0092713
  25.2477346  28.9728215  45.8939379  26.1744464  28.1099111  46.7236782
  26.0368715  22.8998868  30.4344264  26.2894236  22.3780389  29.6727727
  25.0993274  22.7365013  30.5370947  31.0811998  21.9034646  38.2419007
  31.8675087  21.4854069  37.8909424  31.3450702  22.8080738  38.4100655
  36.4820425  21.8409879  39.1451985  37.2145597  21.2709096  39.3789815
  35.7259781  21.4531480  39.5858491  25.7565004  24.8026973  32.6368638
  25.6401262  24.1271877  33.3049723  25.8667264  24.3159347  31.8200792
  28.0996545  24.2637121  36.3415328  27.7354752  23.7367742  37.0528249
  28.9563661  23.8735590  36.1681813  34.0045845  15.5531453  43.6046594
  33.6729170  16.4226864  43.3807809  33.4091459  15.2367737  44.2840624
  27.7402032  19.2927020  31.3376676  27.9076434  20.1607257  31.7047147
  27.5499201  19.4554302  30.4137965  23.9489846  24.2057796  39.0379211
  23.0240343  24.0734010  39.2456903  24.1974260  24.9852015  39.5349153
  33.8974509  20.2726539  40.6839944  32.9891386  20.2041948  40.3898705
  33.8462104  20.7498484  41.5121769  27.7191253  21.7484678  32.3223343
  27.5990878  22.1941729  33.1608823  27.0243841  22.0969995  31.7636881
  21.3098657  23.8491070  39.8723000  21.4391039  24.1025549  40.7862412
  20.6296109  24.4418778  39.5527655  27.9715374  21.6916185  48.6274841
  27.1948709  22.2510105  48.6177706  28.6105938  22.1772968  49.1489711
  35.7636155  18.4742978  42.4617818  35.1210535  18.7675511  41.8157612
  35.2591084  18.3595898  43.2671014  33.4176319  22.2206151  33.1503677
  34.3294175  22.4533538  32.9751375  32.9085966  22.8043195  32.5878756
  28.0548156  21.5803386  44.1598527  28.9009352  22.0042799  44.3033176
  27.9946794  20.9237010  44.8537090  31.2047602  19.2407754  45.8179700
  30.9608534  19.9949814  45.2813976  31.4807532  19.6193102  46.6526947
  30.7612294  18.3964187  41.3993538  29.8996773  18.6945440  41.6910276
  30.7874728  18.6134586  40.4674571  24.4697944  26.4877859  40.7447107
  25.0399301  26.9165127  40.1064591  25.0606056  26.2060444  41.4431293
  26.5142749  23.0629530  34.6156909  27.2166792  23.5150574  35.0830835
  26.1823377  22.4213349  35.2436802  24.9623111  21.6541286  48.9908118
  24.3321771  22.3357567  49.2243515  24.8559198  21.5424368  48.0461256
  20.2568083  21.3213083  39.9174042  19.4667137  21.5770611  39.4414153
  20.7479330  22.1361420  40.0226083  22.2082828  21.6857662  36.8757519
  21.4113992  21.7976356  37.3941015  21.9808421  22.0244314  36.0098410
  18.5405786  21.5743573  42.3489033  18.7913824  22.4590583  42.6146609
  19.0765334  21.3948175  41.5764125  24.2403853  15.9562052  51.3533369
  23.8470799  15.4028251  52.0281013  25.0569994  16.2672631  51.7439887
  21.2065911  27.3945911  35.2646939  21.7190432  28.1889161  35.4152504
  21.8588624  26.6972201  35.1980541  23.0160796  30.5111667  37.3469692
  23.1927424  31.4329632  37.1590676  23.8117629  30.1970086  37.7764072
  27.1571814  17.3719931  48.9453626  27.8981528  17.9727085  48.8658088
  27.3889737  16.6297569  48.3871668  22.3013152  22.5576299  47.2231855
  22.1866667  21.6561556  47.5238954  21.4457670  22.8039995  46.8716672
  29.3804990  30.4994039  48.8219356  28.9368844  29.7130418  48.5040261
  30.0422204  30.6873190  48.1563247  24.1392111  32.0289841  43.3480035
  24.6899536  31.9006904  42.5757029  23.3003587  32.3284730  42.9974927
  31.1028977  13.4001034  43.2217907  30.7593247  14.2902676  43.1457018
  31.4707940  13.2102692  42.3587492  19.1714828  25.7234565  36.0406510
  20.0090050  26.1331573  35.8240217  19.3493095  24.7834007  36.0106704
  28.6526371  18.2359346  36.7875581  27.7967967  17.8466197  36.6081220
  29.0653323  18.3151307  35.9275366  30.1825518  15.7705690  41.1867141
  29.6790313  15.7335825  40.3734946  30.4756124  16.6798432  41.2463797
  26.4268403  15.8544419  40.1933322  27.2921400  15.6587228  39.8339212
  26.4945912  15.6254771  41.1202679  30.8565563  21.2636738  33.5550124
  30.5515699  21.5782887  34.4060267  31.8096005  21.3418157  33.5977457
  24.0330723  18.0846627  37.5649689  24.6074474  17.8621809  36.8322882
  24.6201705  18.1535322  38.3178291  24.3600310  20.1151088  31.5845575
  23.5237622  20.4525775  31.9054849  24.2205079  19.9800068  30.6472712
  26.3353390  14.9587876  36.2924759  25.6817803  14.6436893  35.6681373
  26.2933864  14.3363617  37.0184582  27.4464595  25.2407171  28.2078051
  26.5391657  25.0096425  28.4069200  27.9435627  24.4444790  28.3952032
  29.5691131  21.4469810  40.6172406  28.6513692  21.6684757  40.4594094
  29.9851274  21.5216120  39.7584114  30.3526178  22.8461225  35.7475087
  31.0997997  23.3582623  35.4382209  30.6217768  22.5245278  36.6079480
  32.8005016  19.8818342  37.7293876  32.0627772  19.3695728  38.0604118
  33.0531789  19.4418723  36.9177153  32.9016643  12.6594594  38.3235645
  33.2075520  11.7991957  38.0361560  33.6269248  13.2512214  38.1234639
  19.1940999  23.0625280  36.7117243  18.9965399  22.4694641  35.9868310
  18.6387663  22.7577490  37.4293182  27.1737723  22.9548387  38.8311836
  27.2286332  22.0022223  38.7554313  26.3628925  23.1107826  39.3153135
  25.1130082  21.5725446  36.5902215  24.2997948  21.8719617  36.9967407
  25.6089077  21.1781135  37.3076697  36.4402031  25.1585707  36.1266438
  36.3019930  25.3487303  35.1987627  36.0838250  25.9205090  36.5834489
  24.6044157  19.1443802  42.2063450  25.2443537  19.0032561  41.5086413
  23.7721688  18.8578315  41.8302052  25.3804461  28.4446232  38.3198443
  26.1745060  27.9496552  38.1181017  24.6696154  27.9164095  37.9566148
  21.6887225  22.5889314  34.3958195  20.7584813  22.5273770  34.6128157
  21.7844697  22.0665267  33.5994836  21.6072774  19.1144127  36.9836437
  21.8679591  20.0289460  36.8745597  22.4289946  18.6468569  37.1333050
  23.0797699  20.5281884  44.1535261  23.7520752  20.3199246  43.5047910
  22.2527486  20.3303970  43.7140494  28.9823271  17.1543825  46.1700922
  28.3351186  17.8533775  46.0765399  29.7524286  17.5879969  46.5377170
  23.4825196  23.8024487  44.9137699  23.3444994  23.0704726  45.5149238
  24.3930120  23.7133387  44.6321886  26.1107497  23.5144446  44.4021378
  26.8207115  22.8737639  44.3607997  26.0676805  23.7657341  45.3247559
  24.8236431  20.5009664  46.2217018  24.2873788  20.0500403  46.8738614
  24.2353139  20.6355573  45.4787482  24.2338690  19.9598316  28.7843481
  23.3568156  19.8387116  28.4205728  24.7096443  19.1684394  28.5322370
  15.7540830  24.7475475  38.8784988  16.4411870  24.4337205  38.2906004
  15.5988959  25.6516840  38.6052240  20.5575552  19.6365672  43.3070012
  20.4733741  19.0291341  42.5720422  19.7358259  20.1274690  43.3079508
  30.7299266  18.1219235  38.6740207  31.2267966  17.3689198  38.3541277
  29.9586248  18.1583552  38.1083417  27.3134235  20.2636618  38.4011892
  26.9432022  19.7107659  39.0892797  27.8093327  19.6594752  37.8486892
  35.2001598  22.7208242  36.7828665  35.6662050  23.5536234  36.7088967
  35.6509099  22.2553224  37.4873923  25.1423433  30.7234113  45.4966910
  25.8432893  31.3570596  45.6496304  24.6718548  31.0648845  44.7362549
  33.1718261  15.0888829  40.8219566  32.2581341  15.3193056  40.9901773
  33.6011362  15.1727273  41.6733598  20.7391151  30.2570469  42.4298012
  21.3244588  29.5114156  42.5625917  20.5415990  30.5674425  43.3134676
  15.3308806  22.8276069  41.1502456  15.3692906  22.2939659  41.9439574
  14.8249099  22.3011274  40.5313433  22.7099568  17.6740609  44.6464998
  22.7740895  18.5355440  44.2342396  22.6466689  17.0614611  43.9137356
  22.1851841  19.7463742  48.2938032  22.8123880  19.3640819  48.9075556
  21.3279760  19.5277944  48.6593725  32.5845950  30.1526717  49.8991768
  33.1285853  30.7656675  49.4046722  32.0032794  30.7106295  50.4158781
  18.9617384  21.5540171  34.2256387  19.2570825  20.6450849  34.1723441
  18.0605419  21.5327910  33.9037389  22.4911631  19.6296167  40.2083936
  21.7698216  20.2432135  40.0691409  23.2804886  20.1653932  40.1300582
  25.2937944  16.9650594  46.4824587  25.8172346  17.2112890  47.2450897
  25.0750277  17.7970629  46.0627725  20.6905225  19.2354269  34.3495712
  20.3617931  18.3551647  34.1670818  21.0444596  19.1801937  35.2372101
  23.8047048  19.5227238  34.7171190  24.1443121  20.0513160  33.9949798
  24.2519169  19.8607644  35.4929756  26.4990489  17.9064289  44.1674258
  26.1587310  17.1072102  44.5694938  25.7929496  18.2066000  43.5951091
  27.1506961  14.9913601  42.6201581  27.9733030  14.5174080  42.4980471
  27.3945025  15.7704085  43.1200267  25.7915196  18.0201860  32.9164483
  26.5123558  18.3983113  32.4128199  25.1680500  18.7390737  33.0199461
  29.9346318  18.7247009  33.8522815  30.1509933  19.6071647  33.5511643
  29.4540386  18.3333222  33.1228457  24.6745540  21.6832722  40.4293559
  24.5290121  21.9973025  41.3217841  24.1970743  22.3017622  39.8764458
  26.5341923  18.6735270  40.4774449  26.5203491  17.7776363  40.1406747
  27.2514351  18.6805934  41.1112735  28.3868053  19.1072610  42.5227576
  28.1285831  20.0289681  42.5211907  27.8553094  18.7103045  43.2128041
  19.1491202  24.2238067  43.3681221  18.6044670  24.9997874  43.5001495
  20.0270552  24.5708871  43.2100342  25.9378819  17.5549650  35.7462019
  26.0594730  16.6266297  35.9452907  25.6480861  17.5688336  34.8340335
  28.8070009  15.2404561  38.8828739  28.8291706  15.3043894  37.9280719
  29.2238068  14.4009069  39.0769245  39.1853633  24.9759820  36.9207962
  39.6284779  24.2267146  36.5227085  38.3080144  24.9669957  36.5381694
  19.9357224  23.3507963  46.2611378  19.1938960  23.4990598  46.8476008
  19.6149968  23.6116228  45.3978127  36.2180838  28.9789867  33.9301891
  36.7432162  29.3177140  33.2051211  36.1303190  28.0436883  33.7465026
  20.3813838  31.2373392  38.2921772  21.2071857  30.9377163  37.9120416
  20.0307890  30.4681014  38.7411561  25.3495371  30.5899860  40.3619446
  24.7275380  29.9270565  40.0621674  26.0200238  30.6160992  39.6793094
  18.5822443  29.1559718  39.2510706  17.7454351  28.7281892  39.0694707
  18.5546088  29.3492161  40.1881497  25.4219898  19.0681648  49.9551952
  25.4708054  19.9443771  49.5729721  25.9642412  18.5259041  49.3823595
  27.6519187  19.8213020  46.7098310  26.7822496  20.1146586  46.4380899
  27.8878667  20.4053465  47.4305574  22.6661511  25.1668961  34.8438975
  22.4207553  24.2631291  35.0419185  22.8357425  25.1686111  33.9018453
  30.3558220  16.0392637  44.2263731  30.8740164  16.7753664  43.9010219
  30.0013353  16.3456630  45.0610490  21.9357158  20.8997318  32.3425137
  21.2426403  20.9741673  31.6865173  21.6908910  20.1357662  32.8646654
  30.6070815  12.4592920  39.7464627  30.8872568  11.7916109  40.3725054
  31.3921422  12.6522015  39.2339291  34.4779673  20.8810554  43.4936203
  35.4297096  20.9808651  43.5148427  34.3083123  20.0888822  44.0034287
  32.4994052  17.9666137  43.6795603  31.9043985  18.2471150  42.9842092
  32.2143749  18.4560038  44.4512345  34.2589560  31.2354934  29.4002184
  34.1803191  30.9014798  30.2937941  35.0799226  31.7276702  29.3993656
  28.7951082  22.9712726  28.6505706  29.7410186  22.8418934  28.7194124
  28.4165327  22.2327388  29.1275134  37.1062239  20.8927717  42.6536785
  36.5901288  20.1086173  42.4666714  37.9902188  20.5646433  42.8183305
  34.7672966  14.6368732  38.6132598  34.5697787  14.3283820  39.4975930
  35.3772672  15.3630371  38.7430528  26.9793999  20.8962703  28.5860591
  26.0725454  20.5995815  28.6623305  27.2569980  20.5992521  27.7194878
  17.8971939  22.2169066  39.0359638  17.5774724  21.3634374  38.7434012
  17.3505367  22.4317644  39.7917605  21.6751847  24.9331507  42.7529144
  21.8937857  25.8648615  42.7717178  22.0877621  24.5739481  43.5383948
  28.5956065  15.4399592  34.7404833  27.7856793  15.0946677  35.1160079
  29.2840481  15.1307136  35.3292444  30.5246613  14.5177639  36.3629129
  31.0777651  14.9373093  37.0219152  30.7616699  13.5913387  36.4052085
  26.5479712  20.5064713  52.1431893  26.4476439  21.4559070  52.0743984
  26.3301254  20.1782952  51.2707963  25.7492783  17.7549638  28.7272571
  26.6111947  18.0804536  28.9868388  25.9343128  16.9681134  28.2145636
  17.7660199  25.8371978  41.0052759  17.0723671  25.4225930  40.4922714
  18.5133190  25.8792514  40.4086178  33.9025420  16.6278164  35.8707794
  33.3224089  17.2862968  35.4885846  33.6361353  15.8055509  35.4595211
  32.3528986  16.0283222  38.0729114  32.8528765  16.1399757  37.2643433
  32.9964594  15.7244275  38.7129922  26.4110982  23.9361852  50.9596955
  25.9278064  24.7362212  51.1660844  26.4971921  23.9469797  50.0064399
  19.6796942  25.7690231  38.8818774  19.6567630  25.8677919  37.9300657
  19.9897578  26.6155382  39.2035940  22.3384320  27.8266386  42.9965389
  23.2927573  27.7950329  42.9295320  22.1396843  27.3657010  43.8115615
  22.9283702  26.3967502  45.5636186  23.7476591  26.8911581  45.5871024
  23.2020509  25.4799471  45.5353754  32.6850298  18.7878255  34.9264142
  31.7976153  19.0727905  34.7084337  33.1004287  18.6272018  34.0791419
  36.0364834  18.8124776  38.6418481  36.8125224  19.3021228  38.9143098
  35.3112968  19.2382830  39.0990351  38.4737393  19.5252395  39.6992422
  39.0681883  19.2848131  38.9885730  38.5463976  18.8059525  40.3265958
  20.6934548  33.3686006  40.0135587  20.5589016  32.6086407  39.4473585
  20.2766611  34.0926906  39.5464375  36.4696128  20.0922523  35.9664552
  36.2133062  19.6919158  36.7972759  35.8448996  20.8066316  35.8414691
  40.7808465  22.8318596  38.4735843  40.2208023  22.9011785  39.2467405
  40.1751969  22.6559580  37.7535339  18.1818616  20.7305636  46.2628383
  18.8277480  20.2204590  46.7515609  17.9735767  21.4674318  46.8371809
  30.7072008  27.7986484  51.7620524  31.5763168  27.9727136  51.4007159
  30.2278760  28.6180901  51.6396253  26.7022226  14.9945681  32.0152280
  26.6900896  15.9387521  32.1720551  27.5945648  14.8115826  31.7211741
  30.5174346  11.5888458  36.2698216  29.7506742  11.0346944  36.4154899
  30.9285051  11.6610326  37.1312368  22.5216107  17.8773253  50.3603398
  23.3847569  17.5210058  50.5706722  21.9481518  17.5387148  51.0478802
  35.0341006  41.3138014  37.0924214  34.4705871  41.2227951  36.3240502
  34.9193401  40.4937919  37.5726707  32.5805438  42.8089206  39.9308435
  33.3726730  42.4680030  39.5154734  32.8202088  42.9184181  40.8510588
  34.5396192  42.0698119  32.8025814  35.3127068  41.5227106  32.6638689
  34.8921591  42.9342368  33.0140275  36.8762470  38.2290785  30.4344264
  37.1287990  37.7072306  29.6727727  35.9387029  38.0656931  30.5370947
  36.5958758  40.1318891  32.6368638  36.4795016  39.4563795  33.3049723
  36.7061018  39.6451265  31.8200792  38.5795786  34.6218938  31.3376676
  38.7470189  35.4899174  31.7047147  38.3892955  34.7846220  30.4137965
  53.2031640  40.3348988  39.0164295  52.4495348  39.7656386  38.8608299
  53.3379181  40.3011652  39.9634929  35.0797608  31.2853970  51.3533369
  34.6864553  30.7320169  52.0281013  35.8963748  31.5964548  51.7439887
  32.0459665  42.7237828  35.2646939  32.5584186  43.5181078  35.4152504
  32.6982378  42.0264119  35.1980541  40.2198744  45.8285957  48.8219356
  39.7762599  45.0422335  48.5040261  40.8815958  46.0165107  48.1563247
  30.0108582  41.0526483  36.0406510  30.8483804  41.4623491  35.8240217
  30.1886850  40.1125925  36.0106704  35.1994064  35.4443006  31.5845575
  34.3631376  35.7817692  31.9054849  35.0598834  35.3091986  30.6472712
  38.2858350  40.5699089  28.2078051  37.3785411  40.3388342  28.4069200
  38.7829382  39.7736708  28.3952032  32.5280979  37.9181232  34.3958195
  31.5978567  37.8565687  34.6128157  32.6238451  37.3957184  33.5994836
  39.8217026  32.4835743  46.1700922  39.1744941  33.1825692  46.0765399
  40.5918041  32.9171887  46.5377170  43.2833898  41.0704809  29.6622177
  42.6663069  40.3451637  29.5655230  42.8150387  41.8314169  29.3189251
  35.0732444  35.2890233  28.7843481  34.1961911  35.1679034  28.4205728
  35.5490197  34.4976312  28.5322370  49.4222778  39.1551519  40.3158499
  49.4112654  40.0376234  39.9452432  48.5540157  38.8023070  40.1213036
  35.9817188  46.0526031  45.4966910  36.6826647  46.6862514  45.6496304
  35.5112303  46.3940763  44.7362549  31.5784906  45.5862386  42.4298012
  32.1638343  44.8406074  42.5625917  31.3809744  45.8966343  43.3134676
  43.4239704  45.4818635  49.8991768  43.9679608  46.0948593  49.4046722
  42.8426549  46.0398213  50.4158781  36.1331699  32.2942512  46.4824587
  36.6566101  32.5404808  47.2450897  35.9144032  33.1262546  46.0627725
  34.6440803  34.8519156  34.7171190  34.9836875  35.3805077  33.9949798
  35.0912923  35.1899562  35.4929756  50.0247388  40.3051738  36.9207962
  50.4678534  39.5559063  36.5227085  49.1473898  40.2961874  36.5381694
  38.7194641  48.2215859  46.0591768  39.0281767  47.9765005  46.9314467
  39.5170123  48.4262497  45.5710638  31.2207592  46.5665309  38.2921772
  32.0465612  46.2669081  37.9120416  30.8701644  45.7972932  38.7411561
  29.4216197  44.4851636  39.2510706  28.5848105  44.0573810  39.0694707
  29.3939843  44.6784079  40.1881497  49.5680253  41.7756976  39.3130409
  50.4027144  42.2146780  39.4767970  49.7039381  41.2995630  38.4938655
  33.5055265  40.4960878  34.8438975  33.2601307  39.5923208  35.0419185
  33.6751180  40.4978029  33.9018453  32.7750913  36.2289236  32.3425137
  32.0820158  36.3033591  31.6865173  32.5302665  35.4649580  32.8646654
  45.3173427  36.2102471  43.4936203  46.2690850  36.3100569  43.5148427
  45.1476878  35.4180740  44.0034287  43.3387807  33.2958055  43.6795603
  42.7437739  33.5763067  42.9842092  43.0537504  33.7851955  44.4512345
  39.6344836  38.3004644  28.6505706  40.5803941  38.1710852  28.7194124
  39.2559081  37.5619306  29.1275134  47.9455994  36.2219634  42.6536785
  47.4295042  35.4378091  42.4666714  48.8295942  35.8938351  42.8183305
  39.5183529  42.3522390  50.1106363  40.4386538  42.5300989  50.3046410
  39.4833112  41.4078435  49.9586062  37.8187753  36.2254620  28.5860591
  36.9119209  35.9287733  28.6623305  38.0963734  35.9284438  27.7194878
  36.5886538  33.0841556  28.7272571  37.4505702  33.4096454  28.9868388
  36.7736882  32.2973051  28.2145636  28.6053954  41.1663895  41.0052759
  27.9117425  40.7517848  40.4922714  29.3526945  41.2084432  40.4086178
  30.5190696  41.0982149  38.8818774  30.4961384  41.1969836  37.9300657
  30.8291333  41.9447300  39.2035940  33.1778074  43.1558304  42.9965389
  34.1321328  43.1242246  42.9295320  32.9790598  42.6948928  43.8115615
  49.3131147  34.8544313  39.6992422  49.9075638  34.6140049  38.9885730
  49.3857731  34.1351443  40.3265958  31.5328303  48.6977924  40.0135587
  31.3982771  47.9378324  39.4473585  31.1160365  49.4218823  39.5464375
  51.6202220  38.1610513  38.4735843  51.0601778  38.2303703  39.2467405
  51.0145723  37.9851498  37.7535339  41.5465763  43.1278401  51.7620524
  42.4156922  43.3019054  51.4007159  41.0672514  43.9472818  51.6396253
  37.5415981  30.3237599  32.0152280  37.5294651  31.2679439  32.1720551
  38.4339403  30.1407744  31.7211741  45.8734760  56.6429932  37.0924214
  45.3099625  56.5519869  36.3240502  45.7587155  55.8229836  37.5726707
  50.4967728  55.9429307  47.0613529  50.4856368  55.5482105  46.1894033
  50.6588367  55.2095380  47.6547300  43.4199192  58.1381124  39.9308435
  44.2120484  57.7971948  39.5154734  43.6595842  58.2476099  40.8510588
  51.4534319  60.3100900  32.4038679  50.8022299  60.8954980  32.0172693
  52.2478682  60.8407095  32.4633717  45.3789946  57.3990037  32.8025814
  46.1520822  56.8519024  32.6638689  45.7315345  58.2634286  33.0140275
  47.2174989  58.7266419  46.0092713  46.9264855  59.6312050  45.8939379
  47.8531973  58.7682947  46.7236782  48.1431196  56.1043268  42.5994073
  48.7394768  55.8799290  41.8851035  48.2006167  55.3628013  43.2019520
  52.9309584  57.9991332  32.9407664  52.2955417  58.0725958  33.6528568
  52.6006991  58.5884930  32.2626743  58.1607934  52.4993714  39.1451985
  58.8933106  51.9292931  39.3789815  57.4047290  52.1115315  39.5858491
  55.6833354  46.2115289  43.6046594  55.3516679  47.0810700  43.3807809
  55.0878968  45.8951573  44.2840624  49.4189541  49.9510856  31.3376676
  49.5863943  50.8191092  31.7047147  49.2286710  50.1138137  30.4137965
  52.1764874  58.4127835  43.0042507  51.8765597  59.3152873  42.8958314
  51.8315933  58.1460018  43.8563659  55.5762018  50.9310375  40.6839944
  54.6678895  50.8625783  40.3898705  55.5249613  51.4082320  41.5121769
  42.9886166  54.5074905  39.8723000  43.1178548  54.7609384  40.7862412
  42.3083618  55.1002613  39.5527655  47.1585654  65.1772155  35.9713474
  47.0809683  66.1279980  36.0501955  46.5547297  64.8318027  36.6288401
  49.6502883  52.3500020  48.6274841  48.8736218  52.9093940  48.6177706
  50.2893446  52.8356803  49.1489711  57.4423664  49.1326813  42.4617818
  56.7998044  49.4259346  41.8157612  56.9378593  49.0179733  43.2671014
  55.0963828  52.8789986  33.1503677  56.0081684  53.1117373  32.9751375
  54.5873475  53.4627031  32.5878756  47.9049256  55.1585474  48.1892808
  48.6463940  55.6970518  47.9127632  47.1986241  55.7851762  48.3464360
  53.3804595  57.3014614  46.7864970  53.7887951  56.8597025  46.0419602
  52.6581857  56.7267242  47.0399163  53.7033410  57.8615805  40.5417259
  53.0742272  58.0261519  39.8393326  53.3159072  58.2757414  41.3128223
  57.5822642  58.7970243  37.8961622  56.8973680  59.1769144  37.3458656
  57.6666491  59.4065569  38.6293570  54.8373574  56.4430202  44.4956966
  55.0490469  57.0861962  43.8191347  54.7903322  55.6092518  44.0278896
  46.1485453  57.1461694  40.7447107  46.7186810  57.5748963  40.1064591
  46.7393565  56.8644279  41.4431293  46.6410619  52.3125122  48.9908118
  46.0109280  52.9941403  49.2243515  46.5346707  52.2008203  48.0461256
  55.9519401  59.3202157  42.6679323  56.7736845  58.9182344  42.3862005
  55.9481804  59.2170391  43.6195439  49.7176005  58.8686200  44.8240034
  49.7820437  59.3306608  45.6598206  49.0086929  58.2383565  44.9522344
  64.0425395  55.6640906  39.0164295  63.2889103  55.0948304  38.8608299
  64.1772936  55.6303570  39.9634929  49.4324023  60.5354308  34.6919014
  49.2969697  61.3805844  35.1203862  49.9733835  60.7373585  33.9284948
  42.8853420  58.0529746  35.2646939  43.3977941  58.8472996  35.4152504
  43.5376133  57.3556036  35.1980541  44.6948305  61.1695502  37.3469692
  44.8714933  62.0913467  37.1590676  45.4905138  60.8553921  37.7764072
  43.9800661  53.2160134  47.2231855  43.8654176  52.3145391  47.5238954
  43.1245179  53.4623831  46.8716672  51.0592499  61.1577874  48.8219356
  50.6156353  60.3714253  48.5040261  51.7209713  61.3457025  48.1563247
  45.8179620  62.6873676  43.3480035  46.3687045  62.5590739  42.5757029
  44.9791096  62.9868565  42.9974927  53.1573737  61.4380674  46.8500757
  53.1392212  62.2589555  46.3581027  54.0793657  61.3134750  47.0750899
  49.6146791  58.9524804  47.6924266  50.1475128  58.1913092  47.4623574
  49.0860872  58.6598456  48.4348420  40.8502337  56.3818400  36.0406510
  41.6877559  56.7915409  35.8240217  41.0280604  55.4417842  36.0106704
  52.7466769  54.0493481  31.7290343  52.2313392  54.8198085  31.9678730
  52.4744077  53.3758617  32.3523404  57.7201043  56.8025835  33.6643516
  56.9430486  56.4636995  33.2198678  58.3992524  56.8078459  32.9898481
  50.9799504  58.0810796  35.2043078  50.4520865  57.3463556  34.8916315
  50.4787007  58.8585473  34.9583046  55.9592350  56.2759817  40.3210124
  55.3016024  56.9659078  40.4090253  56.7632749  56.6656249  40.6644110
  54.7697809  54.6304189  38.3714066  55.2829690  55.2634181  38.8735776
  55.4199033  54.0305385  38.0057426  49.1252104  55.8991007  28.2078051
  48.2179166  55.6680260  28.4069200  49.6223136  55.1028626  28.3952032
  52.0320183  64.6088514  31.1274737  51.3581882  64.9120210  31.7359695
  52.4186005  65.4117594  30.7780194  50.3040338  56.0003601  32.7302041
  49.3951557  55.7162634  32.8274511  50.3335421  56.4202680  31.8705348
  55.5359605  59.6110191  36.4993208  55.0821932  58.7701101  36.5558399
  54.9053572  60.2471589  36.8367989  54.4792524  50.5402177  37.7293876
  53.7415281  50.0279563  38.0604118  54.7319298  50.1002559  36.9177153
  53.9792544  61.4486688  37.4343027  54.2715519  62.0091745  36.7155392
  54.4891165  61.7415249  38.1896186  54.5804152  43.3178429  38.3235645
  54.8863029  42.4575792  38.0361560  55.3056757  43.9096049  38.1234639
  50.0016425  57.5412345  30.0690119  49.5635855  56.8248204  29.6095757
  50.7426866  57.7688460  29.5075211  48.9426169  62.2267039  38.5236480
  48.9002348  62.4527885  37.5945012  49.8588868  61.9930413  38.6722281
  58.1189540  55.8169542  36.1266438  57.9807439  56.0071138  35.1987627
  57.7625759  56.5788925  36.5834489  58.1458920  57.8846069  41.1377710
  58.5795426  57.7921358  41.9860764  58.8590500  57.8603570  40.4997726
  47.0591970  59.1030068  38.3198443  47.8532569  58.6080388  38.1181017
  46.3483663  58.5747931  37.9566148  51.8786815  61.4848163  42.6710810
  51.9323837  62.0539100  43.4388526  51.0101596  61.6550048  42.3064847
  59.0074469  57.9269770  43.6710595  59.2010359  58.8315580  43.9169870
  58.9075087  57.4677189  44.5049180  54.0689578  58.0776512  49.2451476
  53.9175084  57.8487064  48.3281559  54.0594257  59.0347114  49.2582821
  50.8374914  55.6508425  44.2297742  51.7666974  55.8019585  44.0566709
  50.4165944  55.7392446  43.3746388  49.6363246  59.6759090  41.9996280
  49.4974332  59.3077874  42.8722218  48.8477842  60.1906729  41.8280237
  50.2311398  64.7768186  33.3421816  50.4063154  64.3056229  34.1567439
  49.5444186  65.4033952  33.5703077  51.1868461  59.0540692  39.3885117
  50.8518294  59.0141462  40.2842767  50.6872407  58.3885408  38.9155528
  45.1612705  54.4608322  44.9137699  45.0232503  53.7288561  45.5149238
  46.0717629  54.3717222  44.6321886  54.1227653  56.3996727  29.6622177
  53.5056824  55.6743555  29.5655230  53.6544141  57.1606087  29.3189251
  55.7781785  61.1095635  47.3227957  55.7194331  60.4254855  46.6558540
  56.1801303  61.8514625  46.8708583  44.7972483  67.9257549  40.1161676
  45.0369082  68.5576073  40.7940695  43.9541680  67.5745589  40.4027036
  45.9126199  50.6182151  28.7843481  45.0355665  50.4970952  28.4205728
  46.3883952  49.8268229  28.5322370  55.7799192  59.0735219  45.5541937
  54.8925971  58.7361141  45.6768336  56.3497743  58.3418250  45.7910702
  49.3100345  63.7336671  42.5203180  49.2370517  64.5391643  43.0322485
  48.8677738  63.9328637  41.6951202  49.0990125  62.9708441  36.0306002
  48.3157647  63.5130122  36.1244226  49.7982870  63.4882421  36.4300243
  60.2616532  54.4843436  40.3158499  60.2506409  55.3668152  39.9452432
  59.3933912  54.1314987  40.1213036  51.7699029  63.6323505  44.6761339
  52.4827001  64.2670970  44.6037240  51.2789057  63.7287371  43.8601341
  53.4916556  57.5374758  36.2478631  52.5572834  57.6576220  36.0783335
  53.6693224  56.6347225  35.9838640  56.8789107  53.3792077  36.7828665
  57.3449559  54.2120069  36.7088967  57.3296608  52.9137059  37.4873923
  46.8210942  61.3817949  45.4966910  47.5220402  62.0154432  45.6496304
  46.3506057  61.7232680  44.7362549  54.9465338  59.7235899  33.7814817
  55.2225182  59.6092493  34.6908691  54.0769837  59.3253383  33.7426990
  54.8505770  45.7472664  40.8219566  53.9368850  45.9776891  40.9901773
  55.2798871  45.8311108  41.6733598  54.6212228  53.9362556  43.3219460
  53.9683679  54.1838464  42.6671913  54.9992608  53.1226694  42.9881937
  51.5819402  63.9722249  37.4247630  51.7641797  63.1543905  37.8875383
  52.4052388  64.1889942  36.9872520  51.9161568  62.8990435  34.6862679
  52.4449334  62.3882889  34.0732841  52.1789787  62.5832965  35.5508212
  50.6699801  54.6782367  49.8085497  49.9940438  54.5776497  50.4787872
  51.4927435  54.5221581  50.2721494  42.4178660  60.9154304  42.4298012
  43.0032097  60.1697992  42.5625917  42.2203499  61.2258261  43.3134676
  45.2717316  63.9505551  37.4460455  44.6027691  64.4351679  36.9624495
  45.1330185  64.1974772  38.3603833  49.4122584  65.9849295  44.0443113
  49.9640892  66.1480916  44.8092198  49.7528778  66.5753733  43.3723138
  54.2633458  60.8110552  49.8991768  54.8073362  61.4240511  49.4046722
  53.6820303  61.3690131  50.4158781  52.5490971  63.9331270  41.0306795
  52.4242111  63.1321010  40.5217741  53.2070063  64.4277464  40.5420765
  54.6125880  61.7340290  42.6586345  53.6656215  61.6145642  42.5864672
  54.9608653  60.8462788  42.7412607  51.6172313  61.5293007  38.8590698
  51.4697276  60.6009714  39.0398268  52.4425807  61.5513097  38.3747773
  55.2206435  62.3521565  39.9455570  56.1452982  62.1464427  39.8080022
  55.0521738  62.1037967  40.8544912  55.0101751  62.8707233  35.3017662
  55.1838629  62.3053655  34.5491514  55.5030642  63.6708128  35.1197152
  40.8278711  54.8821902  43.3681221  40.2832179  55.6581710  43.5001495
  41.7058061  55.2292706  43.2100342  60.8641142  55.6343656  36.9207962
  61.3072288  54.8850981  36.5227085  59.9867653  55.6253792  36.5381694
  55.9976924  62.1873997  32.4014560  56.6927828  62.8080690  32.6201875
  56.3400074  61.3369348  32.6766938  41.6144733  54.0091798  46.2611378
  40.8726469  54.1574433  46.8476008  41.2937477  54.2700064  45.3978127
  57.8968347  59.6373703  33.9301891  58.4219671  59.9760975  33.2051211
  57.8090699  58.7020718  33.7465026  49.5588395  63.5507776  46.0591768
  49.8675522  63.3056923  46.9314467  50.3563878  63.7554415  45.5710638
  49.5809008  65.7045686  38.2897144  49.1413998  65.2122065  38.9830001
  50.3317124  65.1618654  38.0489219  42.0601347  61.8957227  38.2921772
  42.8859366  61.5960999  37.9120416  41.7095399  61.1264849  38.7411561
  47.0282880  61.2483695  40.3619446  46.4062889  60.5854400  40.0621674
  47.6987747  61.2744827  39.6793094  40.2609952  59.8143553  39.2510706
  39.4241860  59.3865728  39.0694707  40.2333597  60.0075997  40.1881497
  57.5862253  60.2706606  49.2353089  56.7957797  60.2530745  48.6957588
  57.3495607  60.8094900  49.9902125  57.7060128  57.1199073  46.5485817
  57.7558133  56.9549080  47.4901340  57.5974051  56.2526332  46.1583698
  46.5896387  59.7987618  33.8377906  46.7384507  60.4823083  33.1844579
  47.3962830  59.7792708  34.3527362  54.9963890  53.1030001  47.8645124
  55.8973753  52.9636466  47.5729122  55.0711865  53.2684456  48.8043302
  59.2078325  59.5396014  46.7927839  58.9163133  59.9025995  47.6291300
  58.5950456  58.8263023  46.6141171  60.4074007  57.1048894  39.3130409
  61.2420898  57.5438698  39.4767970  60.5433136  56.6287547  38.4938655
  57.4565513  54.6628629  45.2607897  57.9319635  54.8556275  44.4526748
  56.5331078  54.7187815  45.0151281  44.3449020  55.8252796  34.8438975
  44.0995062  54.9215126  35.0419185  44.5144934  55.8269947  33.9018453
  52.2858324  43.1176755  39.7464627  52.5660077  42.4499944  40.3725054
  53.0708931  43.3105851  39.2339291  50.0891792  62.2935749  31.3089654
  49.5165759  62.9125936  30.8560126  50.6624586  62.8435111  31.8429576
  56.1567182  51.5394389  43.4936203  57.1084605  51.6392487  43.5148427
  55.9870632  50.7472658  44.0034287  53.3089052  62.5772899  32.4398236
  54.2419725  62.5118461  32.6431112  53.2212265  63.4129166  31.9812769
  55.9377069  61.8938769  29.4002184  55.8590700  61.5598633  30.2937941
  56.7586735  62.3860537  29.3993656  58.6355260  54.7600509  42.6078502
  58.6031580  53.8216509  42.7938186  59.2455883  54.8384545  41.8744327
  50.4738591  53.6296562  28.6505706  51.4197695  53.5002770  28.7194124
  50.0952836  52.8911224  29.1275134  58.7849748  51.5511552  42.6536785
  58.2688797  50.7670009  42.4666714  59.6689697  51.2230269  42.8183305
  56.4460475  45.2952568  38.6132598  56.2485296  44.9867656  39.4975930
  57.0560181  46.0214207  38.7430528  64.4531810  55.8216516  41.7484539
  65.1835198  55.5601804  42.3092242  63.8438755  55.0845237  41.7886607
  62.5347107  53.9624378  42.3458990  61.8080270  53.8280343  41.7375482
  62.1194394  54.2701207  43.1515708  50.3577283  57.6814308  50.1106363
  51.2780293  57.8592907  50.3046410  50.3226866  56.7370353  49.9586062
  48.6581508  51.5546538  28.5860591  47.7512963  51.2579651  28.6623305
  48.9357489  51.2576356  27.7194878  43.3539356  55.5915342  42.7529144
  43.5725365  56.5232450  42.7717178  43.7665130  55.2323317  43.5383948
  48.2267221  51.1648548  52.1431893  48.1263948  52.1142905  52.0743984
  48.0088763  50.8366787  51.2707963  47.4280292  48.4133473  28.7272571
  48.2899456  48.7388372  28.9868388  47.6130637  47.6264969  28.2145636
  55.5812929  47.2862000  35.8707794  55.0011598  47.9446804  35.4885846
  55.3148862  46.4639344  35.4595211  48.0898491  54.5945687  50.9596955
  47.6065573  55.3946047  51.1660844  48.1759430  54.6053632  50.0064399
  41.3584451  56.4274067  38.8818774  41.3355139  56.5261754  37.9300657
  41.6685087  57.2739217  39.2035940  44.0171829  58.4850222  42.9965389
  44.9715082  58.4534164  42.9295320  43.8184352  58.0240845  43.8115615
  44.6071211  57.0551338  45.5636186  45.4264100  57.5495416  45.5871024
  44.8808018  56.1383306  45.5353754  54.3637807  49.4462090  34.9264142
  53.4763662  49.7311741  34.7084337  54.7791796  49.2855853  34.0791419
  57.7152343  49.4708611  38.6418481  58.4912733  49.9605064  38.9143098
  56.9900477  49.8966665  39.0990351  60.1524902  50.1836230  39.6992422
  60.7469392  49.9431966  38.9885730  60.2251485  49.4643361  40.3265958
  42.3722057  64.0269841  40.0135587  42.2376525  63.2670242  39.4473585
  41.9554120  64.7510741  39.5464375  53.5081020  59.2106765  29.0212162
  54.2116870  59.4156767  29.6369818  52.7843669  59.7783527  29.2861245
  54.3378831  54.9616626  35.1414432  54.2814032  55.4185177  34.3022064
  54.8907173  54.2007311  34.9637275  58.1483637  50.7506358  35.9664552
  57.8920571  50.3502994  36.7972759  57.5236505  51.4650152  35.8414691
  62.4595974  53.4902431  38.4735843  61.8995532  53.5595620  39.2467405
  61.8539478  53.3143416  37.7535339  45.5291183  64.9239158  40.2254029
  45.4123567  65.8684591  40.1232720  44.7083630  64.6212720  40.6139828
  55.4167718  59.6489294  31.0710622  56.2513322  59.2170492  30.8888097
  55.2552061  59.4771308  31.9987516  55.0713610  56.1521407  32.4366961
  55.0162414  55.9865679  31.4955405  54.4459665  56.8597440  32.5929151
  39.8606125  51.3889472  46.2628383  40.5064989  50.8788426  46.7515609
  39.6523276  52.1258153  46.8371809  52.3859517  58.4570319  51.7620524
  53.2550677  58.6310971  51.4007159  51.9066269  59.2764736  51.6396253
  46.5545697  65.5767420  43.4409958  47.4572944  65.6091030  43.7576453
  46.3283067  64.6467871  43.4556293  48.3099299  64.3298407  40.1020036
  47.3594930  64.3300268  39.9884409  48.6131786  63.5831141  39.5856071
  52.1961855  42.2472293  36.2698216  51.4294251  41.6930780  36.4154899
  52.6072560  42.3194162  37.1312368  44.2003616  48.5357089  50.3603398
  45.0635077  48.1793894  50.5706722  43.6269027  48.1970984  51.0478802
  64.0451993  70.1658945  41.1665799  64.6830403  70.0465692  40.4629139
  63.9272836  71.1139789  41.2253751  60.8541699  70.1186373  41.1027323
  60.5160211  70.0027438  40.2147858  61.7231467  69.7177538  41.0828330
  56.7128515  71.9721850  37.0924214  56.1493380  71.8811787  36.3240502
  56.5980910  71.1521754  37.5726707  61.3361482  71.2721225  47.0613529
  61.3250123  70.8774023  46.1894033  61.4982122  70.5387298  47.6547300
  54.2592947  73.4673041  39.9308435  55.0514239  73.1263866  39.5154734
  54.4989597  73.5768016  40.8510588  62.2928074  75.6392817  32.4038679
  61.6416053  76.2246898  32.0172693  63.0872436  76.1699012  32.4633717
  56.2183701  72.7281954  32.8025814  56.9914577  72.1810942  32.6638689
  56.5709100  73.5926204  33.0140275  58.0568743  74.0558337  46.0092713
  57.7658609  74.9603968  45.8939379  58.6925728  74.0974864  46.7236782
  58.9824950  71.4335185  42.5994073  59.5788522  71.2091208  41.8851035
  59.0399922  70.6919931  43.2019520  58.5549979  68.8874621  30.4344264
  58.8075499  68.3656142  29.6727727  57.6174538  68.7240766  30.5370947
  63.5993261  67.8910399  38.2419007  64.3856351  67.4729822  37.8909424
  63.8631966  68.7956491  38.4100655  63.7703339  73.3283249  32.9407664
  63.1349172  73.4017876  33.6528568  63.4400745  73.9176848  32.2626743
  69.0001688  67.8285632  39.1451985  69.7326860  67.2584849  39.3789815
  68.2441044  67.4407233  39.5858491  58.2746267  70.7902727  32.6368638
  58.1582525  70.1147630  33.3049723  58.3848527  70.3035100  31.8200792
  60.6177808  70.2512874  36.3415328  60.2536015  69.7243495  37.0528249
  61.4744924  69.8611343  36.1681813  66.5227109  61.5407206  43.6046594
  66.1910434  62.4102617  43.3807809  65.9272722  61.2243490  44.2840624
  60.2583295  65.2802773  31.3376676  60.4257698  66.1483010  31.7047147
  60.0680464  65.4430055  30.4137965  63.0158628  73.7419752  43.0042507
  62.7159351  74.6444791  42.8958314  62.6709688  73.4751935  43.8563659
  56.4671110  70.1933549  39.0379211  55.5421606  70.0609763  39.2456903
  56.7155523  70.9727768  39.5349153  66.4155772  66.2602292  40.6839944
  65.5072649  66.1917701  40.3898705  66.3643368  66.7374237  41.5121769
  60.2372516  67.7360431  32.3223343  60.1172141  68.1817482  33.1608823
  59.5425104  68.0845748  31.7636881  53.8279921  69.8366823  39.8723000
  53.9572302  70.0901302  40.7862412  53.1477372  70.4294531  39.5527655
  57.9979408  80.5064073  35.9713474  57.9203438  81.4571898  36.0501955
  57.3941052  80.1609945  36.6288401  60.4896638  67.6791938  48.6274841
  59.7129972  68.2385858  48.6177706  61.1287201  68.1648721  49.1489711
  68.2817419  64.4618731  42.4617818  67.6391799  64.7551264  41.8157612
  67.7772347  64.3471651  43.2671014  65.9357582  68.2081904  33.1503677
  66.8475438  68.4409291  32.9751375  65.4267229  68.7918948  32.5878756
  58.7443010  70.4877391  48.1892808  59.4857695  71.0262435  47.9127632
  58.0379996  71.1143680  48.3464360  64.2198350  72.6306532  46.7864970
  64.6281706  72.1888942  46.0419602  63.4975611  72.0559159  47.0399163
  60.5729420  67.5679139  44.1598527  61.4190615  67.9918552  44.3033176
  60.5128058  66.9112763  44.8537090  64.5427165  73.1907722  40.5417259
  63.9136027  73.3553437  39.8393326  64.1552827  73.6049332  41.3128223
  63.7228865  65.2283507  45.8179700  63.4789797  65.9825567  45.2813976
  63.9988796  65.6068855  46.6526947  65.6767328  71.7722119  44.4956966
  65.8884223  72.4153879  43.8191347  65.6297076  70.9384436  44.0278896
  63.2793557  64.3839940  41.3993538  62.4178036  64.6821194  41.6910276
  63.3055992  64.6010339  40.4674571  60.0955126  72.9282131  37.8067344
  60.5593472  73.2069834  37.0171966  59.8311925  72.0265575  37.6240434
  56.9879207  72.4753612  40.7447107  57.5580565  72.9040880  40.1064591
  57.5787319  72.1936197  41.4431293  59.0324012  69.0505283  34.6156909
  59.7348056  69.5026327  35.0830835  58.7004641  68.4089102  35.2436802
  57.4804374  67.6417040  48.9908118  56.8503035  68.3233320  49.2243515
  57.3740462  67.5300121  48.0461256  52.7749346  67.3088836  39.9174042
  51.9848400  67.5646364  39.4414153  53.2660594  68.1237173  40.0226083
  66.7913156  74.6494075  42.6679323  67.6130600  74.2474262  42.3862005
  66.7875559  74.5462309  43.6195439  54.7264092  67.6733415  36.8757519
  53.9295255  67.7852109  37.3941015  54.4989684  68.0120067  36.0098410
  60.5569759  74.1978118  44.8240034  60.6214192  74.6598525  45.6598206
  59.8480683  73.5675483  44.9522344  51.0587049  67.5619326  42.3489033
  51.3095088  68.4466336  42.6146609  51.5946598  67.3823928  41.5764125
  60.2717777  75.8646226  34.6919014  60.1363452  76.7097761  35.1203862
  60.8127590  76.0665503  33.9284948  56.7585117  61.9437805  51.3533369
  56.3652062  61.3904004  52.0281013  57.5751257  62.2548384  51.7439887
  53.7247174  73.3821664  35.2646939  54.2371695  74.1764914  35.4152504
  54.3769887  72.6847954  35.1980541  55.5342059  76.4987420  37.3469692
  55.7108688  77.4205385  37.1590676  56.3298893  76.1845839  37.7764072
  59.6753078  63.3595684  48.9453626  60.4162791  63.9602838  48.8658088
  59.9071001  62.6173322  48.3871668  54.8194416  68.5452052  47.2231855
  54.7047931  67.6437309  47.5238954  53.9638933  68.7915748  46.8716672
  61.8986253  76.4869792  48.8219356  61.4550108  75.7006171  48.5040261
  62.5603467  76.6748943  48.1563247  56.6573375  78.0165594  43.3480035
  57.2080800  77.8882657  42.5757029  55.8184851  78.3160483  42.9974927
  60.4540546  74.2816721  47.6924266  60.9868882  73.5205010  47.4623574
  59.9254627  73.9890373  48.4348420  63.6210241  59.3876787  43.2217907
  63.2774510  60.2778429  43.1457018  63.9889203  59.1978445  42.3587492
  51.6896091  71.7110318  36.0406510  52.5271313  72.1207326  35.8240217
  51.8674359  70.7709760  36.0106704  63.5860523  69.3785399  31.7290343
  63.0707147  70.1490003  31.9678730  63.3137832  68.7050535  32.3523404
  61.1707634  64.2235099  36.7875581  60.3149231  63.8341950  36.6081220
  61.5834586  64.3027060  35.9275366  62.7006781  61.7581443  41.1867141
  62.1971577  61.7211578  40.3734946  62.9937388  62.6674185  41.2463797
  58.9449667  61.8420172  40.1933322  59.8102664  61.6462981  39.8339212
  59.0127176  61.6130524  41.1202679  68.5594797  72.1317753  33.6643516
  67.7824240  71.7928913  33.2198678  69.2386278  72.1370376  32.9898481
  63.3746827  67.2512491  33.5550124  63.0696962  67.5658640  34.4060267
  64.3277269  67.3293910  33.5977457  61.8193258  73.4102714  35.2043078
  61.2914620  72.6755473  34.8916315  61.3180761  74.1877390  34.9583046
  66.7986104  71.6051734  40.3210124  66.1409779  72.2950996  40.4090253
  67.6026504  71.9948166  40.6644110  56.5511986  64.0722380  37.5649689
  57.1255738  63.8497562  36.8322882  57.1382968  64.1411075  38.3178291
  65.6091563  69.9596107  38.3714066  66.1223445  70.5926099  38.8735776
  66.2592787  69.3597303  38.0057426  56.8781573  66.1026841  31.5845575
  56.0418885  66.4401528  31.9054849  56.7386343  65.9675821  30.6472712
  58.8534654  60.9463629  36.2924759  58.1999066  60.6312646  35.6681373
  58.8115128  60.3239370  37.0184582  59.9645859  71.2282924  28.2078051
  59.0572920  70.9972178  28.4069200  60.4616891  70.4320543  28.3952032
  62.0872394  67.4345563  40.6172406  61.1694955  67.6560510  40.4594094
  62.5032538  67.5091873  39.7584114  62.8707442  68.8336978  35.7475087
  63.6179261  69.3458376  35.4382209  63.1399031  68.5121031  36.6079480
  61.1434092  71.3295519  32.7302041  60.2345311  71.0454552  32.8274511
  61.1729176  71.7494598  31.8705348  66.3753359  74.9402109  36.4993208
  65.9215687  74.0993018  36.5558399  65.7447326  75.5763507  36.8367989
  65.3186279  65.8694095  37.7293876  64.5809036  65.3571481  38.0604118
  65.5713053  65.4294476  36.9177153  65.4197906  58.6470347  38.3235645
  65.7256783  57.7867710  38.0361560  66.1450511  59.2387967  38.1234639
  51.7122262  69.0501033  36.7117243  51.5146662  68.4570394  35.9868310
  51.1568926  68.7453243  37.4293182  59.6918986  68.9424140  38.8311836
  59.7467596  67.9897976  38.7554313  58.8810188  69.0983579  39.3153135
  60.8410180  72.8704263  30.0690119  60.4029610  72.1540122  29.6095757
  61.5820621  73.0980378  29.5075211  57.6311346  67.5601199  36.5902215
  56.8179211  67.8595370  36.9967407  58.1270340  67.1656888  37.3076697
  59.7819924  77.5558956  38.5236480  59.7396103  77.7819803  37.5945012
  60.6982623  77.3222331  38.6722281  63.2285558  68.0243024  45.4217109
  63.5834945  68.2514497  46.2811575  63.8757689  68.3561401  44.7994364
  68.9583295  71.1461460  36.1266438  68.8201193  71.3363056  35.1987627
  68.6019513  71.9080843  36.5834489  57.1225421  65.1319555  42.2063450
  57.7624800  64.9908314  41.5086413  56.2902951  64.8454068  41.8302052
  68.9852674  73.2137987  41.1377710  69.4189181  73.1213276  41.9860764
  69.6984255  73.1895487  40.4997726  57.8985725  74.4321985  38.3198443
  58.6926323  73.9372305  38.1181017  57.1877417  73.9039848  37.9566148
  62.7180569  76.8140081  42.6710810  62.7717591  77.3831017  43.4388526
  61.8495350  76.9841966  42.3064847  54.2068488  68.5765067  34.3958195
  53.2766076  68.5149523  34.6128157  54.3025960  68.0541020  33.5994836
  54.1254037  65.1019880  36.9836437  54.3860854  66.0165213  36.8745597
  54.9471209  64.6344322  37.1333050  55.5978962  66.5157637  44.1535261
  56.2702016  66.3074999  43.5047910  54.7708749  66.3179723  43.7140494
  61.5004534  63.1419578  46.1700922  60.8532450  63.8409528  46.0765399
  62.2705550  63.5755722  46.5377170  64.9083332  73.4068430  49.2451476
  64.7568839  73.1778982  48.3281559  64.8988012  74.3639032  49.2582821
  61.6768669  70.9800343  44.2297742  62.6060729  71.1311503  44.0566709
  61.2559699  71.0684364  43.3746388  60.4757001  75.0051007  41.9996280
  60.3368086  74.6369792  42.8722218  59.6871597  75.5198647  41.8280237
  62.0262216  74.3832610  39.3885117  61.6912048  74.3433380  40.2842767
  61.5266161  73.7177326  38.9155528  56.0006460  69.7900240  44.9137699
  55.8626258  69.0580479  45.5149238  56.9111383  69.7009140  44.6321886
  64.9621407  71.7288644  29.6622177  64.3450578  71.0035473  29.5655230
  64.4937896  72.4898005  29.3189251  58.6288760  69.5020199  44.4021378
  59.3388379  68.8613392  44.3607997  58.5858069  69.7533094  45.3247559
  57.3417694  66.4885417  46.2217018  56.8055051  66.0376156  46.8738614
  56.7534403  66.6231326  45.4787482  56.7519953  65.9474069  28.7843481
  55.8749420  65.8262869  28.4205728  57.2277706  65.1560147  28.5322370
  66.6192946  74.4027137  45.5541937  65.7319725  74.0653058  45.6768336
  67.1891497  73.6710168  45.7910702  48.2722093  70.7351228  38.8784988
  48.9593133  70.4212958  38.2906004  48.1170222  71.6392593  38.6052240
  53.0756816  65.6241425  43.3070012  52.9915004  65.0167095  42.5720422
  52.2539522  66.1150443  43.3079508  60.1494100  79.0628589  42.5203180
  60.0764271  79.8683561  43.0322485  59.7071493  79.2620555  41.6951202
  59.9383879  78.3000359  36.0306002  59.1551401  78.8422039  36.1244226
  60.6376625  78.8174339  36.4300243  63.2480529  64.1094988  38.6740207
  63.7449229  63.3564951  38.3541277  62.4767511  64.1459305  38.1083417
  71.1010287  69.8135354  40.3158499  71.0900163  70.6960069  39.9452432
  70.2327666  69.4606905  40.1213036  64.3310310  72.8666676  36.2478631
  63.3966589  72.9868138  36.0783335  64.5086979  71.9639142  35.9838640
  59.8315498  66.2512371  38.4011892  59.4613286  65.6983412  39.0892797
  60.3274591  65.6470505  37.8486892  67.7182862  68.7083995  36.7828665
  68.1843314  69.5411987  36.7088967  68.1690362  68.2428977  37.4873923
  57.6604697  76.7109867  45.4966910  58.3614156  77.3446349  45.6496304
  57.1899812  77.0524598  44.7362549  65.7859093  75.0527816  33.7814817
  66.0618937  74.9384411  34.6908691  64.9163591  74.6545301  33.7426990
  65.6899524  61.0764582  40.8219566  64.7762604  61.3068809  40.9901773
  66.1192626  61.1603026  41.6733598  65.4605983  69.2654474  43.3219460
  64.8077433  69.5130381  42.6671913  65.8386363  68.4518612  42.9881937
  62.7555322  78.2282352  34.6862679  63.2843089  77.7174807  34.0732841
  63.0183542  77.9124882  35.5508212  61.5093556  70.0074285  49.8085497
  60.8334193  69.9068414  50.4787872  62.3321190  69.8513499  50.2721494
  53.2572415  76.2446222  42.4298012  53.8425852  75.4989909  42.5625917
  53.0597253  76.5550178  43.3134676  56.1111070  79.2797469  37.4460455
  55.4421445  79.7643597  36.9624495  55.9723940  79.5266689  38.3603833
  47.8490070  68.8151822  41.1502456  47.8874169  68.2815412  41.9439574
  47.3430362  68.2887027  40.5313433  55.2280832  63.6616362  44.6464998
  55.2922158  64.5231193  44.2342396  55.1647952  63.0490364  43.9137356
  54.7033104  65.7339495  48.2938032  55.3305143  65.3516572  48.9075556
  53.8461023  65.5153697  48.6593725  51.4798647  67.5415924  34.2256387
  51.7752088  66.6326602  34.1723441  50.5786683  67.5203663  33.9037389
  55.0092894  65.6171920  40.2083936  54.2879480  66.2307888  40.0691409
  55.7986150  66.1529685  40.1300582  57.8119208  62.9526347  46.4824587
  58.3353610  63.1988644  47.2450897  57.5931541  63.7846382  46.0627725
  53.2086489  65.2230022  34.3495712  52.8799195  64.3427400  34.1670818
  53.5625859  65.1677690  35.2372101  62.4566068  76.8584924  38.8590698
  62.3091030  75.9301632  39.0398268  63.2819561  76.8805015  38.3747773
  56.3228312  65.5102991  34.7171190  56.6624384  66.0388913  33.9949798
  56.7700432  65.8483397  35.4929756  59.0171753  63.8940042  44.1674258
  58.6768573  63.0947855  44.5694938  58.3110759  64.1941753  43.5951091
  59.6688225  60.9789355  42.6201581  60.4914294  60.5049833  42.4980471
  59.9126288  61.7579838  43.1200267  58.3096459  64.0077613  32.9164483
  59.0304822  64.3858866  32.4128199  57.6861763  64.7266490  33.0199461
  62.4527582  64.7122762  33.8522815  62.6691196  65.5947400  33.5511643
  61.9721649  64.3208975  33.1228457  57.1926803  67.6708475  40.4293559
  57.0471384  67.9848778  41.3217841  56.7152007  68.2893375  39.8764458
  59.0523186  64.6611023  40.4774449  59.0384755  63.7652116  40.1406747
  59.7695614  64.6681687  41.1112735  60.9049317  65.0948363  42.5227576
  60.6467095  66.0165434  42.5211907  60.3734357  64.6978798  43.2128041
  51.6672465  70.2113820  43.3681221  51.1225934  70.9873628  43.5001495
  52.5451815  70.5584624  43.2100342  58.4560082  63.5425403  35.7462019
  58.5775993  62.6142050  35.9452907  58.1662125  63.5564089  34.8340335
  61.3251273  61.2280314  38.8828739  61.3472969  61.2919647  37.9280719
  61.7419332  60.3884822  39.0769245  71.7034897  70.9635573  36.9207962
  72.1466043  70.2142899  36.5227085  70.8261407  70.9545710  36.5381694
  52.4538487  69.3383716  46.2611378  51.7120223  69.4866351  46.8476008
  52.1331232  69.5991981  45.3978127  60.3982150  78.8799694  46.0591768
  60.7069276  78.6348841  46.9314467  61.1957632  79.0846333  45.5710638
  52.8995101  77.2249145  38.2921772  53.7253121  76.9252916  37.9120416
  52.5489153  76.4556767  38.7411561  57.8676634  76.5775613  40.3619446
  57.2456643  75.9146318  40.0621674  58.5381501  76.6036745  39.6793094
  51.1003706  75.1435471  39.2510706  50.2635614  74.7157645  39.0694707
  51.0727351  75.3367914  40.1881497  57.9401162  65.0557401  49.9551952
  57.9889317  65.9319524  49.5729721  58.4823676  64.5134794  49.3823595
  68.5453882  72.4490990  46.5485817  68.5951887  72.2840998  47.4901340
  68.4367806  71.5818249  46.1583698  57.4290141  75.1279536  33.8377906
  57.5778261  75.8115000  33.1844579  58.2356585  75.1084626  34.3527362
  65.8357645  68.4321918  47.8645124  66.7367508  68.2928383  47.5729122
  65.9105619  68.5976373  48.8043302  60.1700450  65.8088773  46.7098310
  59.3003760  66.1022339  46.4380899  60.4059930  66.3929218  47.4305574
  68.2959267  69.9920547  45.2607897  68.7713389  70.1848193  44.4526748
  67.3724833  70.0479732  45.0151281  55.1842774  71.1544714  34.8438975
  54.9388816  70.2507044  35.0419185  55.3538689  71.1561864  33.9018453
  62.8739484  62.0268390  44.2263731  63.3921428  62.7629417  43.9010219
  62.5194617  62.3332383  45.0610490  54.4538422  66.8873071  32.3425137
  53.7607667  66.9617426  31.6865173  54.2090174  66.1233415  32.8646654
  63.1252078  58.4468673  39.7464627  63.4053832  57.7791862  40.3725054
  63.9102685  58.6397768  39.2339291  60.9285547  77.6227667  31.3089654
  60.3559514  78.2417854  30.8560126  61.5018340  78.1727028  31.8429576
  66.9960936  66.8686307  43.4936203  67.9478359  66.9684404  43.5148427
  66.8264387  66.0764575  44.0034287  65.0175316  63.9541890  43.6795603
  64.4225248  64.2346903  42.9842092  64.7325013  64.4435791  44.4512345
  69.4749014  70.0892426  42.6078502  69.4425334  69.1508427  42.7938186
  70.0849638  70.1676463  41.8744327  61.3132345  68.9588479  28.6505706
  62.2591450  68.8294687  28.7194124  60.9346590  68.2203141  29.1275134
  69.6243503  66.8803470  42.6536785  69.1082551  66.0961926  42.4666714
  70.5083451  66.5522186  42.8183305  67.2854230  60.6244485  38.6132598
  67.0879051  60.3159574  39.4975930  67.8953935  61.3506124  38.7430528
  73.3740861  69.2916296  42.3458990  72.6474025  69.1572261  41.7375482
  72.9588148  69.5993124  43.1515708  61.1971038  73.0106225  50.1106363
  62.1174047  73.1884824  50.3046410  61.1620621  72.0662271  49.9586062
  59.4975262  66.8838456  28.5860591  58.5906718  66.5871568  28.6623305
  59.7751243  66.5868274  27.7194878  50.4153203  68.2044819  39.0359638
  50.0955987  67.3510127  38.7434012  49.8686631  68.4193397  39.7917605
  54.1933110  70.9207260  42.7529144  54.4119120  71.8524368  42.7717178
  54.6058884  70.5615235  43.5383948  61.1137328  61.4275345  34.7404833
  60.3038056  61.0822430  35.1160079  61.8021745  61.1182889  35.3292444
  63.0427876  60.5053392  36.3629129  63.5958915  60.9248846  37.0219152
  63.2797963  59.5789140  36.4052085  59.0660976  66.4940466  52.1431893
  58.9657702  67.4434823  52.0743984  58.8482518  66.1658705  51.2707963
  58.2674047  63.7425391  28.7272571  59.1293211  64.0680289  28.9868388
  58.4524391  62.9556887  28.2145636  50.2841463  71.8247731  41.0052759
  49.5904934  71.4101683  40.4922714  51.0314454  71.8668267  40.4086178
  66.4206683  62.6153917  35.8707794  65.8405352  63.2738721  35.4885846
  66.1542616  61.7931262  35.4595211  64.8710250  62.0158975  38.0729114
  65.3710028  62.1275510  37.2643433  65.5145858  61.7120028  38.7129922
  58.9292246  69.9237605  50.9596955  58.4459327  70.7237965  51.1660844
  59.0153185  69.9345550  50.0064399  52.1978205  71.7565984  38.8818774
  52.1748893  71.8553672  37.9300657  52.5078842  72.6031135  39.2035940
  54.8565583  73.8142139  42.9965389  55.8108837  73.7826082  42.9295320
  54.6578107  73.3532763  43.8115615  55.4464965  72.3843255  45.5636186
  56.2657854  72.8787334  45.5871024  55.7201773  71.4675224  45.5353754
  65.2031561  64.7754008  34.9264142  64.3157416  65.0603658  34.7084337
  65.6185550  64.6147771  34.0791419  68.5546098  64.8000529  38.6418481
  69.3306488  65.2896981  38.9143098  67.8294232  65.2258583  39.0990351
  70.9918656  65.5128148  39.6992422  71.5863147  65.2723884  38.9885730
  71.0645240  64.7935279  40.3265958  53.2115812  79.3561759  40.0135587
  53.0770280  78.5962160  39.4473585  52.7947874  80.0802659  39.5464375
  64.3474775  74.5398682  29.0212162  65.0510625  74.7448685  29.6369818
  63.6237424  75.1075444  29.2861245  65.1772585  70.2908544  35.1414432
  65.1207787  70.7477095  34.3022064  65.7300928  69.5299228  34.9637275
  68.9877391  66.0798276  35.9664552  68.7314325  65.6794911  36.7972759
  68.3630259  66.7942069  35.8414691  73.2989729  68.8194349  38.4735843
  72.7389287  68.8887538  39.2467405  72.6933232  68.6435333  37.7535339
  56.3684938  80.2531076  40.2254029  56.2517322  81.1976508  40.1232720
  55.5477384  79.9504637  40.6139828  66.2561472  74.9781212  31.0710622
  67.0907076  74.5462410  30.8888097  66.0945815  74.8063225  31.9987516
  65.9107364  71.4813325  32.4366961  65.8556168  71.3157596  31.4955405
  65.2853420  72.1889358  32.5929151  50.6999879  66.7181389  46.2628383
  51.3458743  66.2080343  46.7515609  50.4917031  67.4550071  46.8371809
  63.2253272  73.7862237  51.7620524  64.0944431  73.9602889  51.4007159
  62.7460023  74.6056654  51.6396253  59.2203490  60.9821434  32.0152280
  59.2082160  61.9263274  32.1720551  60.1126912  60.7991579  31.7211741
  57.3939452  80.9059338  43.4409958  58.2966699  80.9382948  43.7576453
  57.1676822  79.9759789  43.4556293  59.1493054  79.6590324  40.1020036
  58.1988685  79.6592186  39.9884409  59.4525540  78.9123059  39.5856071
  63.0355609  57.5764211  36.2698216  62.2688005  57.0222697  36.4154899
  63.4466314  57.6486079  37.1312368  55.0397370  63.8649006  50.3603398
  55.9028832  63.5085811  50.5706722  54.4662781  63.5262901  51.0478802
  31.5270731   1.1845315  27.8911105  32.1649141   1.0652062  27.1874445
  31.4091574   2.1326159  27.9499057  28.3360437   1.1372743  27.8272630
  27.9978948   1.0213807  26.9393165  29.2050205   0.7363908  27.8073636
  24.1947253   2.9908219  23.8169521  23.6312118   2.8998156  23.0485809
  24.0799648   2.1708124  24.2972014  28.8180220   2.2907594  33.7858836
  28.8068861   1.8960393  32.9139339  28.9800859   1.5573667  34.3792607
  21.7411685   4.4859411  26.6553741  22.5332976   4.1450235  26.2400041
  21.9808335   4.5954386  27.5755895  29.7746811   6.6579187  19.1283986
  29.1234791   7.2433267  18.7418000  30.5691174   7.1885382  19.1879023
  23.7002438   3.7468324  19.5271120  24.4733314   3.1997311  19.3883996
  24.0527837   4.6112573  19.7385582  25.5387481   5.0744706  32.7338020
  25.2477347   5.9790337  32.6184686  26.1744465   5.1161234  33.4482089
  26.4643688   2.4521555  29.3239379  27.0607260   2.2277577  28.6096342
  26.5218659   1.7106300  29.9264827  31.0811999  -1.0903232  24.9664313
  31.8675088  -1.5083808  24.6154730  31.3450703  -0.1857139  25.1345962
  31.2522076   4.3469619  19.6652970  30.6167909   4.4204245  20.3773875
  30.9219483   4.9363218  18.9872049  36.4820426  -1.1527998  25.8697292
  37.2145598  -1.7228782  26.1035121  35.7259782  -1.5406398  26.3103797
  28.0996546   1.2699243  23.0660634  27.7354753   0.7429864  23.7773556
  28.9563662   0.8797712  22.8927120  30.4977366   4.7606122  29.7287813
  30.1978089   5.6631161  29.6203620  30.1528426   4.4938305  30.5808966
  23.9489848   1.2119919  25.7624518  23.0240344   1.0796133  25.9702209
  24.1974261   1.9914138  26.2594460  33.8974510  -2.7211338  27.4085251
  32.9891387  -2.7895930  27.1144012  33.8462106  -2.2439393  28.2367076
  21.3098659   0.8553192  26.5968307  21.4391040   1.1087671  27.5107718
  20.6296110   1.4480900  26.2772962  25.4798146  11.5250442  22.6958781
  25.4022176  12.4758267  22.7747261  24.8759790  11.1796315  23.3533707
  27.9715376  -1.3021692  35.3520148  27.1948710  -0.7427772  35.3423012
  28.6105939  -0.8164909  35.8735018  33.4176320  -0.7731726  19.8748984
  34.3294176  -0.5404340  19.6996681  32.9085967  -0.1894682  19.3124062
  26.2261748   1.5063761  34.9138115  26.9676432   2.0448805  34.6372938
  25.5198733   2.1330050  35.0709667  31.7017088   3.6492901  33.5110276
  32.1100444   3.2075312  32.7664909  30.9794349   3.0745529  33.7644469
  28.0548158  -1.4134492  30.8843833  28.9009353  -0.9895078  31.0278482
  27.9946795  -2.0700868  31.5782396  32.0245902   4.2094092  27.2662565
  31.3954765   4.3739806  26.5638633  31.6371564   4.6235702  28.0373529
  35.9035134   5.1448530  24.6206929  35.2186172   5.5247431  24.0703962
  35.9878984   5.7543857  25.3538877  31.2047603  -3.7530123  32.5425007
  30.9608535  -2.9988063  32.0059283  31.4807534  -3.3744776  33.3772254
  33.1586066   2.7908489  31.2202272  33.3702961   3.4340249  30.5436654
  33.1115814   1.9570805  30.7524203  30.7612295  -4.5973690  28.1238845
  29.8996774  -4.2992437  28.4155582  30.7874729  -4.3803292  27.1919877
  27.5773864   3.9468500  24.5312650  28.0412210   4.2256203  23.7417273
  27.3130662   3.0451945  24.3485741  24.4697945   3.4939982  27.4692414
  25.0399302   3.9227250  26.8309898  25.0606057   3.2122566  28.1676599
  26.5142750   0.0691652  21.3402215  27.2166794   0.5212696  21.8076142
  26.1823379  -0.5724529  21.9682109  24.9623112  -1.3396591  35.7153425
  24.3321772  -0.6580310  35.9488822  24.8559200  -1.4513509  34.7706563
  20.2568084  -1.6724795  26.6419349  19.4667138  -1.4167266  26.1659460
  20.7479332  -0.8576457  26.7471390  34.2731894   5.6680444  29.3924630
  35.0949337   5.2660632  29.1107311  34.2694297   5.5648678  30.3440746
  22.2082830  -1.3080216  23.6002826  21.4113993  -1.1961521  24.1186321
  21.9808422  -0.9693563  22.7343716  28.0388497   5.2164488  31.5485340
  28.1032930   5.6784895  32.3843512  27.3299421   4.5861853  31.6767650
  42.3637887   2.0119193  25.7409601  41.6101595   1.4426591  25.5853606
  42.4985428   1.9781857  26.6880236  27.7536515   6.8832595  21.4164321
  27.6182190   7.7284131  21.8449168  28.2946327   7.0851873  20.6530254
  21.2065912   4.4008033  21.9892246  21.7190433   5.1951283  22.1397810
  21.8588625   3.7034324  21.9225847  23.0160797   7.5173789  24.0714999
  23.1927425   8.4391754  23.8835983  23.8117630   7.2032209  24.5009379
  22.3013154  -0.4361579  33.9477162  22.1866669  -1.3376321  34.2484261
  21.4457671  -0.1897882  33.5961979  29.3804991   7.5056162  35.5464663
  28.9368845   6.7192540  35.2285567  30.0422205   7.6935312  34.8808554
  24.1392112   9.0351963  30.0725341  24.6899538   8.9069027  29.3002335
  23.3003588   9.3346852  29.7220234  31.4786229   7.7858962  33.5746064
  31.4604705   8.6067843  33.0826333  32.4006149   7.6613037  33.7996205
  27.9359283   5.3003091  34.4169572  28.4687620   4.5391379  34.1868880
  27.4073365   5.0076743  35.1593727  19.1714829   2.7296687  22.7651816
  20.0090051   3.1393696  22.5485524  19.3493097   1.7896130  22.7352010
  31.0679261   0.3971768  18.4535649  30.5525885   1.1676373  18.6924037
  30.7956570  -0.2763096  19.0768711  28.6526372  -4.7578531  23.5120888
  27.7967969  -5.1471681  23.3326526  29.0653324  -4.6786570  22.6520673
  36.0413535   3.1504123  20.3888823  35.2642978   2.8115282  19.9443985
  36.7205016   3.1556746  19.7143788  30.8565564  -1.7301140  20.2795430
  30.5515700  -1.4154991  21.1305574  31.8096006  -1.6519720  20.3222763
  29.3011996   4.4289083  21.9288384  28.7733358   3.6941843  21.6161622
  28.7999499   5.2063760  21.6828353  34.2804842   2.6238104  27.0455431
  33.6228517   3.3137365  27.1335559  35.0845241   3.0134536  27.3889417
  33.0910301   0.9782477  25.0959372  33.6042183   1.6112469  25.5981082
  33.7411525   0.3783672  24.7302732  30.3532675  10.9566801  17.8520044
  29.6794374  11.2598498  18.4605001  30.7398497  11.7595881  17.5025501
  29.5691132  -1.5468068  27.3417713  28.6513693  -1.3253121  27.1839401
  29.9851275  -1.4721757  26.4829420  30.3526180  -0.1476652  22.4720393
  31.0997999   0.3644745  22.1627515  30.6217769  -0.4692599  23.3324787
  28.6252830   2.3481889  19.4547348  27.7164049   2.0640921  19.5519817
  28.6547914   2.7680967  18.5950654  33.8572097   5.9588478  23.2238515
  33.4034424   5.1179388  23.2803706  33.2266064   6.5949876  23.5613295
  32.8005017  -3.1119536  24.4539183  32.0627774  -3.6242150  24.7849425
  33.0531790  -3.5519154  23.6422459  32.3005036   7.7964975  24.1588333
  32.5928011   8.3570032  23.4400699  32.8103657   8.0893536  24.9141492
  27.1737724  -0.0389491  25.5557143  27.2286334  -0.9915654  25.4799619
  26.3628926   0.1169948  26.0398441  25.1130084  -1.4212431  23.3147522
  24.2997949  -1.1218260  23.7212714  25.6089078  -1.8156742  24.0322004
  27.2638662   8.5745326  25.2481786  27.2214840   8.8006172  24.3190318
  28.1801360   8.3408700  25.3967588  30.7104295  -0.9570607  32.1462416
  31.0653683  -0.7299133  33.0056881  31.3576427  -0.6252230  31.5239671
  36.4402032   2.1647829  22.8511745  36.3019931   2.3549425  21.9232934
  36.0838251   2.9267212  23.3079796  24.6044159  -3.8494076  28.9308757
  25.2443538  -3.9905316  28.2331720  23.7721689  -4.1359562  28.5547359
  36.4671412   4.2324356  27.8623016  36.9007919   4.1399645  28.7106070
  37.1802993   4.2081857  27.2243032  25.3804462   5.4508355  25.0443749
  26.1745061   4.9558675  24.8426324  24.6696155   4.9226218  24.6811455
  30.1999307   7.8326450  29.3956117  30.2536329   8.4017387  30.1633833
  29.3314088   8.0028335  29.0310154  23.0797700  -2.4655993  30.8780568
  23.7520754  -2.6738631  30.2293217  22.2527487  -2.6633907  30.4385800
  37.3286962   4.2748057  30.3955902  37.5222852   5.1793867  30.6415176
  37.2287580   3.8155476  31.2294487  32.3902070   4.4254800  35.9696782
  32.2387577   4.1965351  35.0526866  32.3806750   5.3825401  35.9828127
  29.1587407   1.9986712  30.9543049  30.0879467   2.1497872  30.7812016
  28.7378437   2.0870733  30.0991695  27.9575738   6.0237377  28.7241586
  27.8186824   5.6556161  29.5967524  27.1690335   6.5385016  28.5525544
  28.5523890  11.1246473  20.0667123  28.7275646  10.6534517  20.8812745
  27.8656678  11.7512240  20.2948383  29.5080954   5.4018980  26.1130424
  29.1730786   5.3619750  27.0088074  29.0084899   4.7363696  25.6400834
  23.4825198   0.8086610  31.6383005  23.3444995   0.0766848  32.2394544
  24.3930121   0.7195510  31.3567193  26.1107498   0.5206569  31.1266685
  26.8207117  -0.1200239  31.0853303  26.0676806   0.7719464  32.0492866
  34.0994277   7.4573922  34.0473264  34.0406823   6.7733142  33.3803847
  34.5013795   8.1992912  33.5953890  24.8236432  -2.4928213  32.9462324
  24.2873789  -2.9437475  33.5983921  24.2353141  -2.3582304  32.2032789
  23.1184976  14.2735836  26.8406983  23.3581574  14.9054360  27.5186001
  22.2754172  13.9223876  27.1272342  34.1011684   5.4213506  32.2787244
  33.2138463   5.0839428  32.4013643  34.6710235   4.6896537  32.5156009
  15.7540831   1.7537598  25.6030295  16.4411871   1.4399328  25.0151310
  15.5988960   2.6578963  25.3297547  27.6312838  10.0814959  29.2448487
  27.5583009  10.8869930  29.7567791  27.1890231  10.2806924  28.4196508
  27.4202617   9.3186729  22.7551308  26.6370139   9.8608409  22.8489533
  28.1195362   9.8360708  23.1545550  38.5829025   0.8321724  27.0403805
  38.5718901   1.7146439  26.6697738  37.7146404   0.4793274  26.8458342
  30.0911521   9.9801793  31.4006646  30.8039493  10.6149257  31.3282547
  29.6001550  10.0765659  30.5846647  31.8129048   3.8853045  22.9723937
  30.8785327   4.0054508  22.8028642  31.9905716   2.9825512  22.7083947
  27.3134236  -2.7301259  25.1257198  26.9432024  -3.2830219  25.8138104
  27.8093328  -3.3343125  24.5732198  35.2001599  -0.2729635  23.5073971
  35.6662052   0.5598356  23.4334274  35.6509100  -0.7384654  24.2119230
  25.1423435   7.7296236  32.2212216  25.8432894   8.3632719  32.3741611
  24.6718550   8.0710968  31.4607856  33.2677830   6.0714186  20.5060123
  33.5437674   5.9570780  21.4153997  32.3982329   5.6731671  20.4672297
  32.9424721   0.2840844  30.0464767  32.2896171   0.5316751  29.3917220
  33.3205100  -0.5295018  29.7127244  29.9031894  10.3200537  24.1492937
  30.0854289   9.5022193  24.6120689  30.7264880  10.5368229  23.7117827
  30.2374060   9.2468722  21.4107986  30.7661826   8.7361176  20.7978148
  30.5002280   8.9311252  22.2753519  28.9912294   1.0260655  36.5330804
  28.3152931   0.9254784  37.2033179  29.8139927   0.8699868  36.9966801
  20.7391153   7.2632591  29.1543319  21.3244589   6.5176279  29.2871223
  20.5415991   7.5736548  30.0379983  23.5929808  10.2983839  24.1705761
  22.9240183  10.7829966  23.6869802  23.4542678  10.5453059  25.0849140
  27.7335076  12.3327582  30.7688420  28.2853384  12.4959204  31.5337505
  28.0741270  12.9232020  30.0968445  32.5845951   7.1588840  36.6237074
  33.1285855   7.7718798  36.1292029  32.0032796   7.7168418  37.1404087
  30.8703464  10.2809558  27.7552102  30.7454603   9.4799297  27.2463047
  31.5282555  10.7755751  27.2666072  22.4911632  -3.3641710  26.9329242
  21.7698218  -2.7505742  26.7936716  23.2804888  -2.8283945  26.8545888
  32.9338372   8.0818578  29.3831652  31.9868708   7.9623929  29.3109979
  33.2821145   7.1941076  29.4657914  29.9384805   7.8771294  25.5836004
  29.7909768   6.9488001  25.7643574  30.7638299   7.8991385  25.0993080
  33.5418927   8.6999853  26.6700877  34.4665475   8.4942714  26.5325328
  33.3734231   8.4516254  27.5790219  26.4990491  -5.0873588  30.8919564
  26.1587311  -5.8865775  31.2940244  25.7929497  -4.7871877  30.3196398
  24.6745541  -1.3105155  27.1538866  24.5290122  -0.9964852  28.0463148
  24.1970745  -0.6920255  26.6009765  26.5341924  -4.3202607  27.2019756
  26.5203493  -5.2161514  26.8652054  27.2514352  -4.3131944  27.8358042
  28.3868055  -3.8865267  29.2472883  28.1285833  -2.9648196  29.2457214
  27.8553095  -4.2834833  29.9373347  33.3314243   9.2185520  22.0262969
  33.5051121   8.6531943  21.2736821  33.8243135  10.0186415  21.8442458
  19.1491203   1.2300189  30.0926527  18.6044671   2.0059997  30.2246802
  20.0270553   1.5770994  29.9345649  39.1853635   1.9821943  23.6453268
  39.6284781   1.2329268  23.2472392  38.3080145   1.9732079  23.2627000
  34.3189416   8.5352284  19.1259867  35.0140321   9.1558977  19.3447181
  34.6612566   7.6847636  19.4012245  19.9357225   0.3570085  32.9856684
  19.1938961   0.5052721  33.5721315  19.6149969   0.6178351  32.1223434
  36.2180839   5.9851990  20.6547198  36.7432163   6.3239263  19.9296518
  36.1303192   5.0499005  20.4710332  27.8800888   9.8986064  32.7837074
  28.1888014   9.6535210  33.6559774  28.6776370  10.1032702  32.2955944
  27.9021500  12.0523973  25.0142451  27.4626490  11.5600352  25.7075307
  28.6529617  11.5096941  24.7734526  20.3813839   8.2435514  25.0167079
  21.2071859   7.9439286  24.6365722  20.0307891   7.4743137  25.4656867
  25.3495372   7.5961982  27.0864752  24.7275381   6.9332687  26.7866980
  26.0200239   7.6223114  26.4038400  18.5822444   6.1621841  25.9756012
  17.7454352   5.7344015  25.7940014  18.5546089   6.3554284  26.9126804
  25.4219899  -3.9256230  36.6797258  25.4708055  -3.0494107  36.2975028
  25.9642414  -4.4678837  36.1068902  35.9074745   6.6184894  35.9598396
  35.1170289   6.6009032  35.4202895  35.6708100   7.1573187  36.7147432
  36.0272620   3.4677360  33.2731124  36.0770625   3.3027367  34.2146647
  35.9186544   2.6004619  32.8829005  24.9108879   6.1465906  20.5623213
  25.0596999   6.8301370  19.9089886  25.7175322   6.1270996  21.0772669
  33.3176383  -0.5491712  34.5890431  34.2186245  -0.6885247  34.2974429
  33.3924357  -0.3837257  35.5288608  27.6519188  -3.1724857  33.4343617
  26.7822497  -2.8791291  33.1626206  27.8878668  -2.5884412  34.1550881
  37.5290817   5.8874301  33.5173146  37.2375625   6.2504282  34.3536607
  36.9162948   5.1741310  33.3386478  38.7286499   3.4527181  26.0375716
  39.5633391   3.8916985  26.2013276  38.8645628   2.9765834  25.2183962
  35.7778005   1.0106916  31.9853204  36.2532127   1.2034562  31.1772055
  34.8543571   1.0666102  31.7396587  22.6661512   2.1731083  21.5684282
  22.4207554   1.2693413  21.7664492  22.8357426   2.1748234  20.6263760
  28.4104284   8.6414036  18.0334960  27.8378251   9.2604223  17.5805432
  28.9837078   9.1913398  18.5674882  34.4779674  -2.1127324  30.2181509
  35.4297097  -2.0129226  30.2393733  34.3083125  -2.9049055  30.7279594
  31.6301544   8.9251186  19.1643543  32.5632217   8.8596748  19.3676418
  31.5424757   9.7607453  18.7058075  34.2589561   8.2417057  16.1247490
  34.1803192   7.9076920  17.0183248  35.0799228   8.7338825  16.1238963
  36.9567752   1.1078796  29.3323809  36.9244072   0.1694797  29.5183493
  37.5668376   1.1862833  28.5989634  42.7744302   2.1694803  28.4729846
  43.5047690   1.9080091  29.0337549  42.1651247   1.4323525  28.5131914
  40.8559599   0.3102665  29.0704297  40.1292763   0.1758630  28.4620788
  40.4406886   0.6179494  29.8761015  28.6789775   4.0292595  36.8351670
  29.5992785   4.2071194  37.0291716  28.6439358   3.0848640  36.6831369
  21.6751848   1.9393630  29.4774451  21.8937858   2.8710737  29.4962485
  22.0877622   1.5801604  30.2629255  26.5479713  -2.4873165  38.8677200
  26.4476440  -1.5378808  38.7989291  26.3301255  -2.8154926  37.9953270
  17.7660200   2.8434100  27.7298066  17.0723672   2.4288053  27.2168020
  18.5133191   2.8854637  27.1331485  26.4110983   0.9423974  37.6842262
  25.9278065   1.7424334  37.8906151  26.4971922   0.9531919  36.7309706
  19.6796943   2.7752354  25.6064081  19.6567631   2.8740041  24.6545964
  19.9897579   3.6217505  25.9281247  22.3384321   4.8328509  29.7210695
  23.2927574   4.8012451  29.6540627  22.1396844   4.3719133  30.5360921
  22.9283703   3.4029625  32.2881493  23.7476592   3.8973704  32.3116330
  23.2020511   2.4861593  32.2599061  20.6934550  10.3748128  26.7380893
  20.5589018   9.6148529  26.1718891  20.2766612  11.0989028  26.2709682
  31.8293513   5.5585052  15.7457469  32.5329363   5.7635054  16.3615124
  31.1056161   6.1261814  16.0106552  32.6591323   1.3094913  21.8659739
  32.6026524   1.7663465  21.0267371  33.2119665   0.5485598  21.6882581
  40.7808467  -0.1619282  25.1981150  40.2208025  -0.0926092  25.9712712
  40.1751970  -0.3378297  24.4780646  23.8503676  11.2717445  26.9499336
  23.7336060  12.2162878  26.8478026  23.0296122  10.9691007  27.3385135
  33.7380210   5.9967581  17.7955929  34.5725814   5.5648780  17.6133403
  33.5764553   5.8249595  18.7232823  33.3926102   2.4999695  19.1612268
  33.3374906   2.3343966  18.2200712  32.7672158   3.2075727  19.3174458
  30.7072009   4.8048606  38.4865831  31.5763169   4.9789259  38.1252466
  30.2278761   5.6243023  38.3641560  24.8758190  11.9245707  30.1655264
  25.7785436  11.9569318  30.4821759  24.6495560  10.9946158  30.1801600
  26.6311792  10.6776694  26.8265343  25.6807423  10.6778556  26.7129715
  26.9344278   9.9309428  26.3101378  42.3664485  16.5137232  27.8911105
  43.0042895  16.3943980  27.1874445  42.2485328  17.4618076  27.9499057
  39.1754191  16.4664660  27.8272630  38.8372703  16.3505725  26.9393165
  40.0443960  16.0655826  27.8073636  35.0341007  18.3200137  23.8169521
  34.4705872  18.2290074  23.0485809  34.9193402  17.5000041  24.2972014
  39.6573974  17.6199512  33.7858836  39.6462615  17.2252310  32.9139339
  39.8194614  16.8865585  34.3792607  32.5805439  19.8151328  26.6553741
  33.3726731  19.4742153  26.2400041  32.8202089  19.9246303  27.5755895
  40.6140566  21.9871105  19.1283986  39.9628546  22.5725185  18.7418000
  41.4084929  22.5177299  19.1879023  34.5396193  19.0760242  19.5271120
  35.3127069  18.5289229  19.3883996  34.8921592  19.9404491  19.7385582
  36.3781236  20.4036624  32.7338020  36.0871102  21.3082255  32.6184686
  37.0138220  20.4453152  33.4482089  37.3037442  17.7813472  29.3239379
  37.9001015  17.5569495  28.6096342  37.3612414  17.0398218  29.9264827
  36.8762471  15.2352908  17.1589570  37.1287991  14.7134429  16.3973033
  35.9387030  15.0719053  17.2616254  41.9205754  14.2388686  24.9664313
  42.7068843  13.8208109  24.6154730  42.1844458  15.1434778  25.1345962
  42.0915831  19.6761536  19.6652970  41.4561664  19.7496163  20.3773875
  41.7613237  20.2655135  18.9872049  47.3214181  14.1763919  25.8697292
  48.0539353  13.6063136  26.1035121  46.5653536  13.7885520  26.3103797
  36.5958760  17.1381014  19.3613945  36.4795018  16.4625917  20.0295029
  36.7061019  16.6513388  18.5446098  38.9390300  16.5991161  23.0660634
  38.5748508  16.0721782  23.7773556  39.7957416  16.2089630  22.8927120
  44.8439601   7.8885493  30.3291900  44.5122926   8.7580904  30.1053115
  44.2485214   7.5721777  31.0085931  38.5795787  11.6281061  18.0621983
  38.7470190  12.4961297  18.4292454  38.3892957  11.7908342  17.1383272
  41.3371121  20.0898039  29.7287813  41.0371844  20.9923078  29.6203620
  40.9922180  19.8230223  30.5808966  34.7883602  16.5411836  25.7624518
  33.8634099  16.4088050  25.9702209  35.0368015  17.3206056  26.2594460
  44.7368264  12.6080580  27.4085251  43.8285142  12.5395988  27.1144012
  44.6855860  13.0852525  28.2367076  38.5585008  14.0838718  19.0468650
  38.4384634  14.5295769  19.8854130  37.8637597  14.4324036  18.4882188
  32.1492413  16.1845110  26.5968307  32.2784794  16.4379589  27.5107718
  31.4689864  16.7772818  26.2772962  36.3191900  26.8542360  22.6958781
  36.2415930  27.8050185  22.7747261  35.7153544  26.5088232  23.3533707
  38.8109130  14.0270225  35.3520148  38.0342464  14.5864145  35.3423012
  39.4499693  14.5127008  35.8735018  46.6029911  10.8097018  29.1863124
  45.9604291  11.1029551  28.5402919  46.0984839  10.6949938  29.9916321
  44.2570074  14.5560191  19.8748984  45.1687931  14.7887578  19.6996681
  43.7479722  15.1397235  19.3124062  37.0655503  16.8355679  34.9138115
  37.8070187  17.3740723  34.6372938  36.3592488  17.4621967  35.0709667
  42.5410842  18.9784819  33.5110276  42.9494198  18.5367230  32.7664909
  41.8188104  18.4037447  33.7644469  38.8941912  13.9157426  30.8843833
  39.7403107  14.3396839  31.0278482  38.8340550  13.2591050  31.5782396
  42.8639657  19.5386010  27.2662565  42.2348519  19.7031724  26.5638633
  42.4765319  19.9527619  28.0373529  46.7428889  20.4740448  24.6206929
  46.0579927  20.8539349  24.0703962  46.8272738  21.0835774  25.3538877
  42.0441358  11.5761794  32.5425007  41.8002289  12.3303855  32.0059283
  42.3201288  11.9547142  33.3772254  43.9979820  18.1200407  31.2202272
  44.2096716  18.7632166  30.5436654  43.9509569  17.2862723  30.7524203
  41.6006049  10.7318227  28.1238845  40.7390528  11.0299481  28.4155582
  41.6268484  10.9488626  27.1919877  38.4167619  19.2760418  24.5312650
  38.8805964  19.5548121  23.7417273  38.1524417  18.3743862  24.3485741
  35.3091700  18.8231899  27.4692414  35.8793057  19.2519168  26.8309898
  35.8999812  18.5414484  28.1676599  37.3536505  15.3983570  21.3402215
  38.0560548  15.8504614  21.8076142  37.0217133  14.7567389  21.9682109
  35.8016866  13.9895327  35.7153425  35.1715527  14.6711608  35.9488822
  35.6952954  13.8778408  34.7706563  31.0961839  13.6567123  26.6419349
  30.3060893  13.9124651  26.1659460  31.5873086  14.4715461  26.7471390
  45.1125648  20.9972362  29.3924630  45.9343092  20.5952549  29.1107311
  45.1088051  20.8940596  30.3440746  33.0476584  14.0211702  23.6002826
  32.2507747  14.1330396  24.1186321  32.8202176  14.3598354  22.7343716
  38.8782252  20.5456405  31.5485340  38.9426684  21.0076813  32.3843512
  38.1693176  19.9153770  31.6767650  29.3799542  13.9097613  29.0734340
  29.6307580  14.7944623  29.3391916  29.9159090  13.7302215  28.3009432
  53.2031641  17.3411110  25.7409601  52.4495350  16.7718509  25.5853606
  53.3379183  17.3073775  26.6880236  38.5930269  22.2124513  21.4164321
  38.4575944  23.0576048  21.8449168  39.1340082  22.4143790  20.6530254
  35.0797609   8.2916093  38.0778676  34.6864555   7.7382291  38.7526320
  35.8963749   8.6026671  38.4685193  32.0459667  19.7299951  21.9892246
  32.5584187  20.5243201  22.1397810  32.6982380  19.0326241  21.9225847
  33.8554551  22.8465707  24.0714999  34.0321180  23.7683672  23.8835983
  34.6511385  22.5324126  24.5009379  37.9965570   9.7073972  35.6698932
  38.7375283  10.3081125  35.5903395  38.2283493   8.9651609  35.1116975
  33.1406908  14.8930339  33.9477162  33.0260423  13.9915596  34.2484261
  32.2851426  15.1394036  33.5961979  40.2198746  22.8348079  35.5464663
  39.7762600  22.0484458  35.2285567  40.8815959  23.0227230  34.8808554
  34.9785867  24.3643881  30.0725341  35.5293292  24.2360944  29.3002335
  34.1397343  24.6638770  29.7220234  42.3179984  23.1150879  33.5746064
  42.2998459  23.9359760  33.0826333  43.2399904  22.9904954  33.7996205
  38.7753038  20.6295009  34.4169572  39.3081375  19.8683297  34.1868880
  38.2467119  20.3368660  35.1593727  41.9422733   5.7355075  29.9463214
  41.5987002   6.6256716  29.8702325  42.3101696   5.5456732  29.0832799
  30.0108584  18.0588605  22.7651816  30.8483806  18.4685613  22.5485524
  30.1886851  17.1188047  22.7352010  41.9073016  15.7263686  18.4535649
  41.3919639  16.4968290  18.6924037  41.6350324  15.0528822  19.0768711
  39.4920127  10.5713387  23.5120888  38.6361723  10.1820237  23.3326526
  39.9047078  10.6505347  22.6520673  41.0219273   8.1059730  27.9112447
  40.5184069   8.0689865  27.0980253  41.3149880   9.0152473  27.9709104
  37.2662159   8.1898460  26.9178629  38.1315156   7.9941268  26.5584519
  37.3339668   7.9608811  27.8447986  46.8807290  18.4796040  20.3888823
  46.1036733  18.1407200  19.9443985  47.5598771  18.4848664  19.7143788
  41.6959319  13.5990778  20.2795430  41.3909454  13.9136927  21.1305574
  42.6489761  13.6772198  20.3222763  40.1405751  19.7581001  21.9288384
  39.6127112  19.0233761  21.6161622  39.6393253  20.5355678  21.6828353
  45.1198597  17.9530022  27.0455431  44.4622271  18.6429283  27.1335559
  45.9238996  18.3426454  27.3889417  34.8724478  10.4200667  24.2894996
  35.4468230  10.1975849  23.5568189  35.4595461  10.4889362  25.0423597
  43.9304055  16.3074394  25.0959372  44.4435937  16.9404386  25.5981082
  44.5805279  15.7075590  24.7302732  35.1994065  12.4505128  18.3090881
  34.3631378  12.7879815  18.6300156  35.0598835  12.3154108  17.3718018
  37.1747146   7.2941916  23.0170065  36.5211558   6.9790934  22.3926680
  37.1327620   6.6717657  23.7429888  38.2858351  17.5761211  14.9323357
  37.3785413  17.3450465  15.1314506  38.7829383  16.7798831  15.1197339
  41.1926430  26.2858719  17.8520044  40.5188128  26.5890415  18.4605001
  41.5792252  27.0887799  17.5025501  40.4084886  13.7823850  27.3417713
  39.4907448  14.0038797  27.1839401  40.8245030  13.8570160  26.4829420
  41.1919934  15.1815266  22.4720393  41.9391753  15.6936663  22.1627515
  41.4611524  14.8599318  23.3324787  39.4646584  17.6773806  19.4547348
  38.5557804  17.3932839  19.5519817  39.4941668  18.0972885  18.5950654
  44.6965852  21.2880396  23.2238515  44.2428179  20.4471306  23.2803706
  44.0659818  21.9241794  23.5613295  43.6398771  12.2172382  24.4539183
  42.9021528  11.7049768  24.7849425  43.8925545  11.7772763  23.6422459
  43.1398791  23.1256892  24.1588333  43.4321765  23.6861950  23.4400699
  43.6497412  23.4185453  24.9141492  43.7410399   4.9948634  25.0480952
  44.0469275   4.1345997  24.7606867  44.4663003   5.5866254  24.8479946
  30.0334755  15.3979320  23.4362550  29.8359154  14.8048681  22.7113616
  29.4781419  15.0931531  24.1538489  38.0131478  15.2902427  25.5557143
  38.0680088  14.3376263  25.4799619  37.2022680  15.4461866  26.0398441
  39.1622672  19.2182550  16.7935426  38.7242102  18.5018409  16.3341063
  39.9033113  19.4458665  16.2320517  35.9523838  13.9079487  23.3147522
  35.1391704  14.2073657  23.7212714  36.4482832  13.5135175  24.0322004
  38.1032416  23.9037244  25.2481786  38.0608595  24.1298090  24.3190318
  39.0195115  23.6700618  25.3967588  41.5498050  14.3721311  32.1462416
  41.9047438  14.5992784  33.0056881  42.1970181  14.7039688  31.5239671
  47.2795787  17.4939747  22.8511745  47.1413685  17.6841343  21.9232934
  46.9232006  18.2559130  23.3079796  35.4437913  11.4797842  28.9308757
  36.0837292  11.3386601  28.2331720  34.6115444  11.1932356  28.5547359
  47.3065166  19.5616274  27.8623016  47.7401673  19.4691563  28.7106070
  48.0196747  19.5373774  27.2243032  36.2198217  20.7800273  25.0443749
  37.0138815  20.2850593  24.8426324  35.5089909  20.2518136  24.6811455
  41.0393061  23.1618368  29.3956117  41.0930084  23.7309304  30.1633833
  40.1707843  23.3320253  29.0310154  32.5280980  14.9243354  21.1203502
  31.5978568  14.8627810  21.3373464  32.6238452  14.4019307  20.3240143
  32.4466529  11.4498167  23.7081743  32.7073347  12.3643500  23.5990904
  33.2683702  10.9822610  23.8578356  33.9191455  12.8635924  30.8780568
  34.5914508  12.6553286  30.2293217  33.0921241  12.6658010  30.4385800
  48.1680716  19.6039975  30.3955902  48.3616606  20.5085785  30.6415176
  48.0681334  19.1447394  31.2294487  39.8217027   9.4897865  32.8946229
  39.1744942  10.1887815  32.8010705  40.5918042   9.9234009  33.2622477
  43.2295825  19.7546717  35.9696782  43.0781331  19.5257269  35.0526866
  43.2200504  20.7117319  35.9828127  39.9981161  17.3278630  30.9543049
  40.9273221  17.4789790  30.7812016  39.5772191  17.4162651  30.0991695
  38.7969493  21.3529295  28.7241586  38.6580579  20.9848079  29.5967524
  38.0084089  21.8676934  28.5525544  39.3917645  26.4538391  20.0667123
  39.5669401  25.9826434  20.8812745  38.7050433  27.0804157  20.2948383
  40.3474708  20.7310897  26.1130424  40.0124541  20.6911667  27.0088074
  39.8478654  20.0655613  25.6400834  34.3218952  16.1378527  31.6383005
  34.1838750  15.4058766  32.2394544  35.2323875  16.0487427  31.3567193
  43.2833900  18.0766932  16.3867484  42.6663070  17.3513760  16.2900536
  42.8150388  18.8376292  16.0434558  36.9501253  15.8498487  31.1266685
  37.6600871  15.2091679  31.0853303  36.9070561  16.1011381  32.0492866
  44.9388031  22.7865840  34.0473264  44.8800578  22.1025060  33.3803847
  45.3407550  23.5284830  33.5953890  35.6630187  12.8363705  32.9462324
  35.1267544  12.3854443  33.5983921  35.0746895  12.9709613  32.2032789
  33.9578730  29.6027754  26.8406983  34.1975328  30.2346278  27.5186001
  33.1147927  29.2515794  27.1272342  35.0732446  12.2952356  15.5088788
  34.1961912  12.1741157  15.1451035  35.5490199  11.5038434  15.2567677
  44.9405439  20.7505424  32.2787244  44.0532217  20.4131346  32.4013643
  45.5103990  20.0188455  32.5156009  26.5934586  17.0829516  25.6030295
  27.2805626  16.7691246  25.0151310  26.4382714  17.9870880  25.3297547
  31.3969308  11.9719712  30.0315319  31.3127497  11.3645382  29.2965729
  30.5752014  12.4628731  30.0324815  38.4706592  25.4106876  29.2448487
  38.3976764  26.2161848  29.7567791  38.0283985  25.6098842  28.4196508
  38.2596372  24.6478646  22.7551308  37.4763894  25.1900326  22.8489533
  38.9589117  25.1652626  23.1545550  41.5693022  10.4573276  25.3985514
  42.0661721   9.7043238  25.0786584  40.7980003  10.4937592  24.8328723
  49.4222779  16.1613641  27.0403805  49.4112655  17.0438357  26.6697738
  48.5540159  15.8085192  26.8458342  40.9305276  25.3093710  31.4006646
  41.6433248  25.9441175  31.3282547  40.4395304  25.4057576  30.5846647
  42.6522802  19.2144963  22.9723937  41.7179081  19.3346425  22.8028642
  42.8299471  18.3117430  22.7083947  38.1527991  12.5990659  25.1257198
  37.7825778  12.0461699  25.8138104  38.6487083  11.9948792  24.5732198
  46.0395354  15.0562282  23.5073971  46.5055806  15.8890274  23.4334274
  46.4902854  14.5907264  24.2119230  35.9817189  23.0588154  32.2212216
  36.6826649  23.6924637  32.3741611  35.5112304  23.4002885  31.4607856
  44.1071585  21.4006104  20.5060123  44.3831429  21.2862698  21.4153997
  43.2376084  21.0023588  20.4672297  44.0112017   7.4242869  27.5464873
  43.0975096   7.6547096  27.7147080  44.4405118   7.5081313  28.3978905
  43.7818475  15.6132761  30.0464767  43.1289925  15.8608669  29.3917220
  44.1598855  14.7996899  29.7127244  40.7425649  25.6492454  24.1492937
  40.9248043  24.8314110  24.6120689  41.5658635  25.8660147  23.7117827
  41.0767814  24.5760639  21.4107986  41.6055581  24.0653094  20.7978148
  41.3396034  24.2603170  22.2753519  39.8306048  16.3552572  36.5330804
  39.1546685  16.2546702  37.2033179  40.6533682  16.1991786  36.9966801
  31.5784907  22.5924509  29.1543319  32.1638344  21.8468197  29.2871223
  31.3809746  22.9028466  30.0379983  34.4323562  25.6275756  24.1705761
  33.7633938  26.1121884  23.6869802  34.2936432  25.8744977  25.0849140
  26.1702562  15.1630109  27.8747762  26.2086661  14.6293700  28.6684880
  25.6642855  14.6365315  27.2558739  38.5728831  27.6619500  30.7688420
  39.1247139  27.8251121  31.5337505  38.9135024  28.2523938  30.0968445
  33.5493324  10.0094650  31.3710305  33.6134651  10.8709480  30.9587702
  33.4860444   9.3968651  30.6382663  33.0245597  12.0817782  35.0183339
  33.6517636  11.6994859  35.6320863  32.1673516  11.8631984  35.3839031
  43.4239705  22.4880757  36.6237074  43.9679609  23.1010715  36.1292029
  42.8426550  23.0460336  37.1404087  29.8011139  13.8894211  20.9501694
  30.0964581  12.9804890  20.8968747  28.8999175  13.8681951  20.6282696
  41.7097218  25.6101475  27.7552102  41.5848358  24.8091215  27.2463047
  42.3676309  26.1047669  27.2666072  33.3305386  11.9650208  26.9329242
  32.6091972  12.5786175  26.7936716  34.1198642  12.5007973  26.8545888
  43.7732127  23.4110495  29.3831652  42.8262462  23.2915846  29.3109979
  44.1214900  22.5232993  29.4657914  36.1331700   9.3004634  33.2069894
  36.6566102   9.5466931  33.9696203  35.9144033  10.1324669  32.7873031
  31.5298981  11.5708309  21.0741019  31.2011687  10.6905688  20.8916125
  31.8838352  11.5155978  21.9617408  40.7778560  23.2063212  25.5836004
  40.6303522  22.2779919  25.7643574  41.6032053  23.2283302  25.0993080
  34.6440804  11.8581279  21.4416496  34.9836877  12.3867200  20.7195105
  35.0912925  12.1961685  22.2175063  44.3812682  24.0291770  26.6700877
  45.3059229  23.8234632  26.5325328  44.2127985  23.7808171  27.5790219
  37.3384245  10.2418329  30.8919564  36.9981065   9.4426142  31.2940244
  36.6323251  10.5420040  30.3196398  37.9900717   7.3267642  29.3446888
  38.8126786   6.8528120  29.2225778  38.2338780   8.1058126  29.8445574
  36.6308951  10.3555900  19.6409789  37.3517314  10.7337153  19.1373506
  36.0074255  11.0744777  19.7444767  40.7740074  11.0601049  20.5768122
  40.9903689  11.9425687  20.2756950  40.2934141  10.6687263  19.8473764
  35.5139296  14.0186762  27.1538866  35.3683876  14.3327065  28.0463148
  35.0364499  14.6371663  26.6009765  37.3735678  11.0089310  27.2019756
  37.3597247  10.1130404  26.8652054  38.0908107  11.0159974  27.8358042
  39.2261809  11.4426651  29.2472883  38.9679587  12.3643721  29.2457214
  38.6946850  11.0457085  29.9373347  44.1707998  24.5477438  22.0262969
  44.3444875  23.9823860  21.2736821  44.6636889  25.3478333  21.8442458
  29.9884958  16.5592107  30.0926527  29.4438426  17.3351915  30.2246802
  30.8664308  16.9062911  29.9345649  36.7772574   9.8903691  22.4707326
  36.8988486   8.9620337  22.6698213  36.4874617   9.9042377  21.5585641
  39.6463765   7.5758601  25.6074046  39.6685462   7.6397934  24.6526025
  40.0631824   6.7363110  25.8014552  50.0247389  17.3113861  23.6453268
  50.4678535  16.5621186  23.2472392  49.1473899  17.3023997  23.2627000
  45.1583170  23.8644202  19.1259867  45.8534075  24.4850895  19.3447181
  45.5006321  23.0139553  19.4012245  30.7750980  15.6862003  32.9856684
  30.0332716  15.8344638  33.5721315  30.4543724  15.9470269  32.1223434
  47.0574594  21.3143908  20.6547198  47.5825918  21.6531180  19.9296518
  46.9696946  20.3790923  20.4710332  38.7194642  25.2277981  32.7837074
  39.0281769  24.9827128  33.6559774  39.5170124  25.4324620  32.2955944
  38.7415254  27.3815891  25.0142451  38.3020245  26.8892270  25.7075307
  39.4923371  26.8388859  24.7734526  31.2207593  23.5727432  25.0167079
  32.0465613  23.2731204  24.6365722  30.8701645  22.8035054  25.4656867
  36.1889126  22.9253900  27.0864752  35.5669136  22.2624605  26.7866980
  36.8593993  22.9515032  26.4038400  29.4216198  21.4913758  25.9756012
  28.5848107  21.0635933  25.7940014  29.3939844  21.6846202  26.9126804
  36.2613654  11.4035688  36.6797258  36.3101809  12.2797811  36.2975028
  36.8036168  10.8613081  36.1068902  46.7468500  21.9476811  35.9598396
  45.9564043  21.9300950  35.4202895  46.5101854  22.4865105  36.7147432
  46.8666375  18.7969278  33.2731124  46.9164380  18.6319285  34.2146647
  46.7580298  17.9296537  32.8829005  35.7502633  21.4757823  20.5623213
  35.8990754  22.1593288  19.9089886  36.5569077  21.4562913  21.0772669
  44.1570137  14.7800206  34.5890431  45.0580000  14.6406671  34.2974429
  44.2318112  14.9454661  35.5288608  38.4912942  12.1567060  33.4343617
  37.6216252  12.4500626  33.1626206  38.7272423  12.7407505  34.1550881
  48.3684572  21.2166219  33.5173146  48.0769380  21.5796200  34.3536607
  47.7556703  20.5033227  33.3386478  49.5680254  18.7819099  26.0375716
  50.4027145  19.2208903  26.2013276  49.7039383  18.3057752  25.2183962
  46.6171760  16.3398834  31.9853204  47.0925881  16.5326480  31.1772055
  45.6937325  16.3958020  31.7396587  33.5055266  17.5023001  21.5684282
  33.2601308  16.5985331  21.7664492  33.6751181  17.5040151  20.6263760
  41.1951976   8.3746677  30.9509037  41.7133920   9.1107704  30.6255526
  40.8407109   8.6810671  31.7855797  32.7750914  13.2351359  19.0670443
  32.0820159  13.3095714  18.4110479  32.5302666  12.4711702  19.5891960
  41.4464570   4.7946960  26.4709934  41.7266324   4.1270149  27.0970361
  42.2315177   4.9876056  25.9584598  39.2498039  23.9705954  18.0334960
  38.6772006  24.5896141  17.5805432  39.8230833  24.5205315  18.5674882
  45.3173429  13.2164594  30.2181509  46.2690852  13.3162692  30.2393733
  45.1476879  12.4242862  30.7279594  43.3387808  10.3020177  30.4040910
  42.7437740  10.5825190  29.7087399  43.0537505  10.7914078  31.1757651
  42.4695299  24.2543104  19.1643543  43.4025972  24.1888666  19.3676418
  42.3818512  25.0899371  18.7058075  45.0983315  23.5708974  16.1247490
  45.0196947  23.2368838  17.0183248  45.9192982  24.0630742  16.1238963
  47.7961507  16.4370714  29.3323809  47.7637827  15.4986714  29.5183493
  48.4062130  16.5154750  28.5989634  39.6344837  15.3066767  15.3751013
  40.5803942  15.1772975  15.4439431  39.2559082  14.5681428  15.8520441
  47.9455995  13.2281757  29.3782092  47.4295044  12.4440214  29.1912021
  48.8295944  12.9000474  29.5428611  45.6066722   6.9722773  25.3377905
  45.4091543   6.6637861  26.2221237  46.2166428   7.6984411  25.4675835
  53.6138056  17.4986720  28.4729846  54.3441445  17.2372009  29.0337549
  53.0045002  16.7615442  28.5131914  51.6953354  15.6394583  29.0704297
  50.9686517  15.5050548  28.4620788  51.2800640  15.9471412  29.8761015
  39.5183530  19.3584513  36.8351670  40.4386539  19.5363112  37.0291716
  39.4833113  18.4140558  36.6831369  37.8187755  13.2316743  15.3105898
  36.9119210  12.9349856  15.3868612  38.0963736  12.9346561  14.4440184
  28.7365695  14.5523106  25.7604944  28.4168479  13.6988415  25.4679318
  28.1899123  14.7671684  26.5162912  32.5145602  17.2685547  29.4774451
  32.7331612  18.2002655  29.4962485  32.9271376  16.9093522  30.2629255
  39.4349820   7.7753633  21.4650139  38.6250549   7.4300718  21.8405385
  40.1234237   7.4661176  22.0537751  41.3640369   6.8531679  23.0874436
  41.9171407   7.2727133  23.7464459  41.6010455   5.9267428  23.1297392
  37.3873468  12.8418753  38.8677200  37.2870195  13.7913110  38.7989291
  37.1695010  12.5136992  37.9953270  36.5886539  10.0903678  15.4517877
  37.4505703  10.4158576  15.7113695  36.7736883   9.3035174  14.9390943
  28.6053955  18.1726018  27.7298066  27.9117426  17.7579971  27.2168020
  29.3526946  18.2146554  27.1331485  44.7419176   8.9632205  22.5953100
  44.1617845   9.6217009  22.2131153  44.4755108   8.1409549  22.1840518
  43.1922742   8.3637262  24.7974421  43.6922520   8.4753797  23.9888739
  43.8358350   8.0598315  25.4375229  37.2504738  16.2715892  37.6842262
  36.7671820  17.0716252  37.8906151  37.3365677  16.2823837  36.7309706
  30.5190697  18.1044272  25.6064081  30.4961386  18.2031959  24.6545964
  30.8291334  18.9509422  25.9281247  33.1778075  20.1620427  29.7210695
  34.1321329  20.1304369  29.6540627  32.9790599  19.7011050  30.5360921
  33.7677457  18.7321543  32.2881493  34.5870346  19.2265621  32.3116330
  34.0414265  17.8153511  32.2599061  43.5244054  11.1232295  21.6509449
  42.6369909  11.4081946  21.4329643  43.9398043  10.9626058  20.8036725
  46.8758590  11.1478816  25.3663788  47.6518980  11.6375268  25.6388405
  46.1506724  11.5736870  25.8235657  49.3131148  11.8606435  26.4237728
  49.9075639  11.6202171  25.7131037  49.3857732  11.1413566  27.0511265
  31.5328304  25.7040046  26.7380893  31.3982772  24.9440447  26.1718891
  31.1160366  26.4280946  26.2709682  42.6687267  20.8876970  15.7457469
  43.3723117  21.0926972  16.3615124  41.9449916  21.4553732  16.0106552
  43.4985077  16.6386831  21.8659739  43.4420279  17.0955382  21.0267371
  44.0513420  15.8777516  21.6882581  47.3089883  12.4276563  22.6909858
  47.0526818  12.0273198  23.5218066  46.6842751  13.1420357  22.5659997
  51.6202221  15.1672636  25.1981150  51.0601779  15.2365825  25.9712712
  51.0145725  14.9913621  24.4780646  34.6897430  26.6009363  26.9499336
  34.5729814  27.5454796  26.8478026  33.8689876  26.2982925  27.3385135
  44.5773965  21.3259499  17.7955929  45.4119568  20.8940697  17.6133403
  44.4158307  21.1541513  18.7232823  44.2319857  17.8291612  19.1612268
  44.1768661  17.6635884  18.2200712  43.6065912  18.5367645  19.3174458
  29.0212372  13.0659677  32.9873690  29.6671235  12.5558631  33.4760915
  28.8129523  13.8028358  33.5617115  41.5465764  20.1340524  38.4865831
  42.4156924  20.3081176  38.1252466  41.0672515  20.9534941  38.3641560
  37.5415982   7.3299721  18.7397586  37.5294652   8.2741561  18.8965857
  38.4339404   7.1469867  18.4457047  37.4705546  26.0068612  26.8265343
  36.5201177  26.0070473  26.7129715  37.7738032  25.2601346  26.3101378
  41.3568102   3.9242498  22.9943523  40.5900497   3.3700985  23.1400205
  41.7678807   3.9964367  23.8557675  33.3609863  10.2127294  37.0848704
  34.2241324   9.8564098  37.2952029  32.7875273   9.8741188  37.7724109
  53.2058240  31.8429150  27.8911105  53.8436650  31.7235897  27.1874445
  53.0879083  32.7909994  27.9499057  50.0147946  31.7956578  27.8272630
  49.6766457  31.6797643  26.9393165  50.8837714  31.3947743  27.8073636
  45.8734762  33.6492055  23.8169521  45.3099627  33.5581991  23.0485809
  45.7587157  32.8291959  24.2972014  50.4967729  32.9491430  33.7858836
  50.4856370  32.5544228  32.9139339  50.6588368  32.2157502  34.3792607
  43.4199194  35.1443246  26.6553741  44.2120485  34.8034071  26.2400041
  43.6595844  35.2538221  27.5755895  51.4534320  37.3163022  19.1283986
  50.8022300  37.9017103  18.7418000  52.2478683  37.8469217  19.1879023
  45.3789947  34.4052159  19.5271120  46.1520823  33.8581146  19.3883996
  45.7315346  35.2696409  19.7385582  48.1431197  33.1105390  29.3239379
  48.7394769  32.8861413  28.6096342  48.2006168  32.3690136  29.9264827
  47.7156225  30.5644825  17.1589570  47.9681746  30.0426347  16.3973033
  46.7780784  30.4010971  17.2616254  52.7599508  29.5680604  24.9664313
  53.5462597  29.1500027  24.6154730  53.0238212  30.4726696  25.1345962
  52.9309585  35.0053454  19.6652970  52.2955418  35.0788081  20.3773875
  52.6006992  35.5947053  18.9872049  58.1607935  29.5055837  25.8697292
  58.8933107  28.9355054  26.1035121  57.4047291  29.1177437  26.3103797
  47.4352514  32.4672931  19.3613945  47.3188772  31.7917835  20.0295029
  47.5454774  31.9805305  18.5446098  49.7784055  31.9283079  23.0660634
  49.4142262  31.4013700  23.7773556  50.6351171  31.5381548  22.8927120
  55.6833356  23.2177411  30.3291900  55.3516680  24.0872822  30.1053115
  55.0878969  22.9013695  31.0085931  49.4189542  26.9572978  18.0621983
  49.5863944  27.8253215  18.4292454  49.2286711  27.1200260  17.1383272
  52.1764875  35.4189957  29.7287813  51.8765598  36.3214996  29.6203620
  51.8315935  35.1522140  30.5808966  45.6277357  31.8703754  25.7624518
  44.7027853  31.7379968  25.9702209  45.8761770  32.6497973  26.2594460
  55.5762019  27.9372497  27.4085251  54.6678896  27.8687906  27.1144012
  55.5249615  28.4144442  28.2367076  49.3978763  29.4130636  19.0468650
  49.2778388  29.8587686  19.8854130  48.7031351  29.7615953  18.4882188
  42.9886168  31.5137028  26.5968307  43.1178549  31.7671506  27.5107718
  42.3083619  32.1064736  26.2772962  47.1585655  42.1834277  22.6958781
  47.0809685  43.1342103  22.7747261  46.5547299  41.8380150  23.3533707
  49.6502885  29.3562143  35.3520148  48.8736219  29.9156063  35.3423012
  50.2893448  29.8418926  35.8735018  57.4423665  26.1388936  29.1863124
  56.7998046  26.4321469  28.5402919  56.9378594  26.0241856  29.9916321
  55.0963829  29.8852109  19.8748984  56.0081685  30.1179496  19.6996681
  54.5873476  30.4689153  19.3124062  53.3804597  34.3076737  33.5110276
  53.7887953  33.8659147  32.7664909  52.6581858  33.7329364  33.7644469
  49.7335667  29.2449344  30.8843833  50.5796862  29.6688757  31.0278482
  49.6734304  28.5882968  31.5782396  53.7033411  34.8677927  27.2662565
  53.0742274  35.0323641  26.5638633  53.3159073  35.2819537  28.0373529
  57.5822643  35.8032365  24.6206929  56.8973681  36.1831267  24.0703962
  57.6666492  36.4127692  25.3538877  52.8835112  26.9053712  32.5425007
  52.6396044  27.6595772  32.0059283  53.1595043  27.2839059  33.3772254
  54.8373575  33.4492324  31.2202272  55.0490470  34.0924084  30.5436654
  54.7903323  32.6154641  30.7524203  52.4399804  26.0610145  28.1238845
  51.5784283  26.3591398  28.4155582  52.4662238  26.2780544  27.1919877
  49.2561373  34.6052335  24.5312650  49.7199719  34.8840038  23.7417273
  48.9918171  33.7035780  24.3485741  46.1485454  34.1523817  27.4692414
  46.7186811  34.5811085  26.8309898  46.7393566  33.8706402  28.1676599
  48.1930259  30.7275488  21.3402215  48.8954303  31.1796531  21.8076142
  47.8610888  30.0859307  21.9682109  46.6410621  29.3187244  35.7153425
  46.0109281  30.0003525  35.9488822  46.5346709  29.2070326  34.7706563
  41.9355593  28.9859040  26.6419349  41.1454647  29.2416569  26.1659460
  42.4266841  29.8007378  26.7471390  55.9519403  36.3264280  29.3924630
  56.7736846  35.9244467  29.1107311  55.9481806  36.2232514  30.3440746
  43.8870339  29.3503620  23.6002826  43.0901502  29.4622314  24.1186321
  43.6595931  29.6890272  22.7343716  49.7176006  35.8748323  31.5485340
  49.7820439  36.3368730  32.3843512  49.0086930  35.2445688  31.6767650
  40.2193296  29.2389531  29.0734340  40.4701335  30.1236541  29.3391916
  40.7552845  29.0594132  28.3009432  64.0425396  32.6703028  25.7409601
  63.2889104  32.1010426  25.5853606  64.1772937  32.6365693  26.6880236
  49.4324024  37.5416430  21.4164321  49.2969699  38.3867966  21.8449168
  49.9733836  37.7435708  20.6530254  45.9191363  23.6208010  38.0778676
  45.5258309  23.0674209  38.7526320  46.7357504  23.9318589  38.4685193
  42.8853421  35.0591868  21.9892246  43.3977942  35.8535119  22.1397810
  43.5376134  34.3618159  21.9225847  44.6948306  38.1757625  24.0714999
  44.8714934  39.0975589  23.8835983  45.4905139  37.8616044  24.5009379
  48.8359324  25.0365889  35.6698932  49.5769038  25.6373043  35.5903395
  49.0677247  24.2943527  35.1116975  51.0592500  38.1639997  35.5464663
  50.6156354  37.3776376  35.2285567  51.7209714  38.3519147  34.8808554
  53.1573738  38.4442797  33.5746064  53.1392214  39.2651678  33.0826333
  54.0793658  38.3196872  33.7996205  52.7816487  21.0646992  29.9463214
  52.4380757  21.9548634  29.8702325  53.1495450  20.8748650  29.0832799
  40.8502338  33.3880523  22.7651816  41.6877560  33.7977531  22.5485524
  41.0280606  32.4479965  22.7352010  52.7466770  31.0555603  18.4535649
  52.2313394  31.8260208  18.6924037  52.4744079  30.3820740  19.0768711
  50.3313881  25.9005304  23.5120888  49.4755478  25.5112155  23.3326526
  50.7440833  25.9797265  22.6520673  51.8613028  23.4351647  27.9112447
  51.3577823  23.3981783  27.0980253  52.1543635  24.3444390  27.9709104
  48.1055914  23.5190377  26.9178629  48.9708910  23.3233186  26.5584519
  48.1733423  23.2900729  27.8447986  57.7201044  33.8087958  20.3888823
  56.9430487  33.4699118  19.9443985  58.3992525  33.8140581  19.7143788
  52.5353073  28.9282696  20.2795430  52.2303209  29.2428845  21.1305574
  53.4883515  29.0064115  20.3222763  50.9799505  35.0872919  21.9288384
  50.4520867  34.3525678  21.6161622  50.4787008  35.8647595  21.6828353
  55.9592351  33.2821939  27.0455431  55.3016026  33.9721201  27.1335559
  56.7632750  33.6718371  27.3889417  45.7118233  25.7492585  24.2894996
  46.2861985  25.5267767  23.5568189  46.2989215  25.8181280  25.0423597
  54.7697810  31.6366312  25.0959372  55.2829692  32.2696304  25.5981082
  55.4199034  31.0367508  24.7302732  46.0387820  27.7797046  18.3090881
  45.2025132  28.1171733  18.6300156  45.8992590  27.6446026  17.3718018
  48.0140900  22.6233834  23.0170065  47.3605313  22.3082851  22.3926680
  47.9721375  22.0009574  23.7429888  49.1252105  32.9053129  14.9323357
  48.2179167  32.6742383  15.1314506  49.6223137  32.1090748  15.1197339
  52.0320184  41.6150636  17.8520044  51.3581883  41.9182333  18.4605001
  52.4186006  42.4179717  17.5025501  51.2478641  29.1115768  27.3417713
  50.3301202  29.3330715  27.1839401  51.6638784  29.1862078  26.4829420
  52.0313689  30.5107183  22.4720393  52.7785508  31.0228580  22.1627515
  52.3005278  30.1891236  23.3324787  50.3040339  33.0065724  19.4547348
  49.3951558  32.7224757  19.5519817  50.3335423  33.4264803  18.5950654
  55.5359606  36.6172313  23.2238515  55.0821933  35.7763223  23.2803706
  54.9053573  37.2533712  23.5613295  54.4792526  27.5464300  24.4539183
  53.7415283  27.0341686  24.7849425  54.7319299  27.1064681  23.6422459
  53.9792545  38.4548810  24.1588333  54.2715520  39.0153867  23.4400699
  54.4891166  38.7477371  24.9141492  54.5804153  20.3240552  25.0480952
  54.8863030  19.4637915  24.7606867  55.3056758  20.9158172  24.8479946
  40.8728509  30.7271238  23.4362550  40.6752909  30.1340599  22.7113616
  40.3175173  30.4223448  24.1538489  48.8525233  30.6194345  25.5557143
  48.9073843  29.6668181  25.4799619  48.0416435  30.7753784  26.0398441
  50.0016427  34.5474468  16.7935426  49.5635857  33.8310327  16.3341063
  50.7426867  34.7750582  16.2320517  46.7917593  29.2371404  23.3147522
  45.9785458  29.5365575  23.7212714  47.2876587  28.8427093  24.0322004
  48.9426171  39.2329161  25.2481786  48.9002349  39.4590008  24.3190318
  49.8588869  38.9992536  25.3967588  52.3891804  29.7013229  32.1462416
  52.7441192  29.9284702  33.0056881  53.0363936  30.0331606  31.5239671
  58.1189541  32.8231665  22.8511745  57.9807440  33.0133261  21.9232934
  57.7625760  33.5851047  23.3079796  46.2831667  26.8089760  28.9308757
  46.9231047  26.6678519  28.2331720  45.4509198  26.5224273  28.5547359
  58.1458921  34.8908192  27.8623016  58.5795428  34.7983481  28.7106070
  58.8590502  34.8665692  27.2243032  47.0591971  36.1092190  25.0443749
  47.8532570  35.6142510  24.8426324  46.3483664  35.5810053  24.6811455
  51.8786816  38.4910286  29.3956117  51.9323838  39.0601222  30.1633833
  51.0101597  38.6612171  29.0310154  43.3674735  30.2535272  21.1203502
  42.4372323  30.1919727  21.3373464  43.4632207  29.7311225  20.3240143
  43.2860284  26.7790085  23.7081743  43.5467101  27.6935418  23.5990904
  44.1077456  26.3114527  23.8578356  44.7585209  28.1927842  30.8780568
  45.4308263  27.9845204  30.2293217  43.9314996  27.9949928  30.4385800
  59.0074471  34.9331892  30.3955902  59.2010361  35.8377703  30.6415176
  58.9075089  34.4739311  31.2294487  50.6610781  24.8189783  32.8946229
  50.0138696  25.5179733  32.8010705  51.4311797  25.2525927  33.2622477
  54.0689579  35.0838635  35.9696782  53.9175086  34.8549187  35.0526866
  54.0594259  36.0409237  35.9828127  50.8374916  32.6570548  30.9543049
  51.7666976  32.8081707  30.7812016  50.4165946  32.7454569  30.0991695
  49.6363247  36.6821212  28.7241586  49.4974333  36.3139997  29.5967524
  48.8477844  37.1968852  28.5525544  50.2311399  41.7830309  20.0667123
  50.4063155  41.3118352  20.8812745  49.5444187  42.4096075  20.2948383
  51.1868463  36.0602815  26.1130424  50.8518295  36.0203585  27.0088074
  50.6872408  35.3947531  25.6400834  45.1612706  31.4670445  31.6383005
  45.0232504  30.7350684  32.2394544  46.0717630  31.3779345  31.3567193
  54.1227654  33.4058849  16.3867484  53.5056825  32.6805677  16.2900536
  53.6544143  34.1668210  16.0434558  47.7895007  31.1790404  31.1266685
  48.4994626  30.5383596  31.0853303  47.7464315  31.4303299  32.0492866
  55.7781786  38.1157758  34.0473264  55.7194332  37.4316978  33.3803847
  56.1801304  38.8576748  33.5953890  46.5023941  28.1655622  32.9462324
  45.9661298  27.7146361  33.5983921  45.9140650  28.3001531  32.2032789
  44.7972485  44.9319671  26.8406983  45.0369083  45.5638196  27.5186001
  43.9541681  44.5807712  27.1272342  45.9126200  27.6244274  15.5088788
  45.0355666  27.5033074  15.1451035  46.3883953  26.8330352  15.2567677
  55.7799193  36.0797342  32.2787244  54.8925972  35.7423263  32.4013643
  56.3497744  35.3480373  32.5156009  37.4328340  32.4121433  25.6030295
  38.1199380  32.0983163  25.0151310  37.2776469  33.3162798  25.3297547
  42.2363062  27.3011630  30.0315319  42.1521251  26.6937299  29.2965729
  41.4145769  27.7920648  30.0324815  49.3100347  40.7398794  29.2448487
  49.2370518  41.5453765  29.7567791  48.8677740  40.9390760  28.4196508
  49.0990126  39.9770564  22.7551308  48.3157648  40.5192244  22.8489533
  49.7982871  40.4944544  23.1545550  52.4086776  25.7865193  25.3985514
  52.9055476  25.0335156  25.0786584  51.6373758  25.8229510  24.8328723
  60.2616534  31.4905559  27.0403805  60.2506410  32.3730274  26.6697738
  59.3933913  31.1377110  26.8458342  51.7699030  40.6385628  31.4006646
  52.4827002  41.2733093  31.3282547  51.2789059  40.7349494  30.5846647
  53.4916557  34.5436881  22.9723937  52.5572836  34.6638343  22.8028642
  53.6693225  33.6409347  22.7083947  48.9921745  27.9282576  25.1257198
  48.6219533  27.3753617  25.8138104  49.4880837  27.3240710  24.5732198
  56.8789108  30.3854200  23.5073971  57.3449560  31.2182192  23.4334274
  57.3296609  29.9199181  24.2119230  54.9465339  36.7298021  20.5060123
  55.2225183  36.6154616  21.4153997  54.0769838  36.3315506  20.4672297
  54.8505771  22.7534787  27.5464873  53.9368851  22.9839014  27.7147080
  55.2798872  22.8373231  28.3978905  54.6212230  30.9424679  30.0464767
  53.9683680  31.1900586  29.3917220  54.9992609  30.1288817  29.7127244
  51.5819403  40.9784372  24.1492937  51.7641798  40.1606028  24.6120689
  52.4052389  41.1952064  23.7117827  51.9161569  39.9052557  21.4107986
  52.4449335  39.3945012  20.7978148  52.1789788  39.5895087  22.2753519
  42.4178662  37.9216426  29.1543319  43.0032098  37.1760114  29.2871223
  42.2203500  38.2320383  30.0379983  45.2717317  40.9567674  24.1705761
  44.6027692  41.4413801  23.6869802  45.1330187  41.2036894  25.0849140
  37.0096316  30.4922027  27.8747762  37.0480416  29.9585617  28.6684880
  36.5036609  29.9657232  27.2558739  49.4122585  42.9911417  30.7688420
  49.9640893  43.1543039  31.5337505  49.7528779  43.5815855  30.0968445
  44.3887079  25.3386567  31.3710305  44.4528405  26.2001398  30.9587702
  44.3254199  24.7260569  30.6382663  43.8639351  27.4109700  35.0183339
  44.4911390  27.0286777  35.6320863  43.0067270  27.1923902  35.3839031
  54.2633460  37.8172675  36.6237074  54.8073364  38.4302633  36.1292029
  53.6820305  38.3752253  37.1404087  40.6404894  29.2186129  20.9501694
  40.9358335  28.3096807  20.8968747  39.7392930  29.1973868  20.6282696
  52.5490973  40.9393393  27.7552102  52.4242112  40.1383133  27.2463047
  53.2070064  41.4339586  27.2666072  44.1699141  27.2942125  26.9329242
  43.4485727  27.9078093  26.7936716  44.9592397  27.8299890  26.8545888
  54.6125881  38.7402413  29.3831652  53.6656217  38.6207764  29.3109979
  54.9608654  37.8524911  29.4657914  46.9725454  24.6296552  33.2069894
  47.4959856  24.8758848  33.9696203  46.7537788  25.4616587  32.7873031
  42.3692736  26.9000226  21.0741019  42.0405442  26.0197605  20.8916125
  42.7232106  26.8447895  21.9617408  51.6172314  38.5355129  25.5836004
  51.4697277  37.6071837  25.7643574  52.4425808  38.5575220  25.0993080
  45.4834559  27.1873196  21.4416496  45.8230631  27.7159118  20.7195105
  45.9306679  27.5253602  22.2175063  55.2206436  39.3583688  26.6700877
  56.1452984  39.1526549  26.5325328  55.0521740  39.1100089  27.5790219
  48.1778000  25.5710247  30.8919564  47.8374820  24.7718060  31.2940244
  47.4717006  25.8711958  30.3196398  48.8294471  22.6559559  29.3446888
  49.6520541  22.1820038  29.2225778  49.0732535  23.4350043  29.8445574
  47.4702706  25.6847818  19.6409789  48.1911068  26.0629071  19.1373506
  46.8468010  26.4036695  19.7444767  51.6133829  26.3892967  20.5768122
  51.8297443  27.2717605  20.2756950  51.1327896  25.9979180  19.8473764
  46.3533050  29.3478680  27.1538866  46.2077631  29.6618983  28.0463148
  45.8758254  29.9663580  26.6009765  48.2129433  26.3381228  27.2019756
  48.1991002  25.4422321  26.8652054  48.9301861  26.3451892  27.8358042
  50.0655564  26.7718568  29.2472883  49.8073342  27.6935639  29.2457214
  49.5340604  26.3749003  29.9373347  55.0101752  39.8769355  22.0262969
  55.1838630  39.3115778  21.2736821  55.5030644  40.6770250  21.8442458
  40.8278712  31.8884024  30.0926527  40.2832180  32.6643832  30.2246802
  41.7058062  32.2354829  29.9345649  47.6166329  25.2195608  22.4707326
  47.7382240  24.2912255  22.6698213  47.3268371  25.2334294  21.5585641
  50.4857519  22.9050519  25.6074046  50.5079216  22.9689852  24.6526025
  50.9025578  22.0655027  25.8014552  60.8641144  32.6405778  23.6453268
  61.3072290  31.8913104  23.2472392  59.9867654  32.6315915  23.2627000
  55.9976925  39.1936120  19.1259867  56.6927830  39.8142812  19.3447181
  56.3400075  38.3431471  19.4012245  57.8968348  36.6435825  20.6547198
  58.4219672  36.9823098  19.9296518  57.8090701  35.7082841  20.4710332
  49.5809009  42.7107809  25.0142451  49.1413999  42.2184187  25.7075307
  50.3317126  42.1680776  24.7734526  42.0601348  38.9019349  25.0167079
  42.8859368  38.6023121  24.6365722  41.7095400  38.1326972  25.4656867
  47.0282881  38.2545818  27.0864752  46.4062890  37.5916523  26.7866980
  47.6987748  38.2806950  26.4038400  40.2609953  36.8205676  25.9756012
  39.4241861  36.3927850  25.7940014  40.2333598  37.0138119  26.9126804
  47.1007408  26.7327606  36.6797258  47.1495564  27.6089729  36.2975028
  47.6429923  26.1904999  36.1068902  57.5862254  37.2768729  35.9598396
  56.7957798  37.2592868  35.4202895  57.3495609  37.8157023  36.7147432
  57.7060129  34.1261195  33.2731124  57.7558134  33.9611203  34.2146647
  57.5974053  33.2588454  32.8829005  46.5896388  36.8049741  20.5623213
  46.7384508  37.4885205  19.9089886  47.3962831  36.7854831  21.0772669
  54.9963892  30.1092123  34.5890431  55.8973754  29.9698588  34.2974429
  55.0711866  30.2746578  35.5288608  49.3306697  27.4858978  33.4343617
  48.4610006  27.7792544  33.1626206  49.5666177  28.0699423  34.1550881
  59.2078326  36.5458137  33.5173146  58.9163134  36.9088117  34.3536607
  58.5950457  35.8325145  33.3386478  60.4074008  34.1111017  26.0375716
  61.2420900  34.5500821  26.2013276  60.5433137  33.6349670  25.2183962
  57.4565514  31.6690751  31.9853204  57.9319636  31.8618398  31.1772055
  56.5331080  31.7249937  31.7396587  44.3449021  32.8314919  21.5684282
  44.0995063  31.9277249  21.7664492  44.5144935  32.8332069  20.6263760
  52.0345731  23.7038595  30.9509037  52.5527675  24.4399622  30.6255526
  51.6800863  24.0102588  31.7855797  43.6144668  28.5643276  19.0670443
  42.9213913  28.6387631  18.4110479  43.3696420  27.8003620  19.5891960
  52.2858325  20.1238878  26.4709934  52.5660079  19.4562067  27.0970361
  53.0708932  20.3167973  25.9584598  50.0891793  39.2997871  18.0334960
  49.5165760  39.9188059  17.5805432  50.6624587  39.8497233  18.5674882
  56.1567183  28.5456512  30.2181509  57.1084606  28.6454609  30.2393733
  55.9870634  27.7534780  30.7279594  54.1781563  25.6312095  30.4040910
  53.5831495  25.9117107  29.7087399  53.8931259  26.1205996  31.1757651
  53.3089053  39.5835022  19.1643543  54.2419726  39.5180583  19.3676418
  53.2212266  40.4191288  18.7058075  55.9377070  38.9000892  16.1247490
  55.8590701  38.5660756  17.0183248  56.7586737  39.3922660  16.1238963
  58.6355261  31.7662631  29.3323809  58.6031581  30.8278632  29.5183493
  59.2455885  31.8446668  28.5989634  50.4738592  30.6358684  15.3751013
  51.4197697  30.5064892  15.4439431  50.0952837  29.8973346  15.8520441
  58.7849750  28.5573675  29.3782092  58.2688798  27.7732131  29.1912021
  59.6689698  28.2292391  29.5428611  56.4460476  22.3014690  25.3377905
  56.2485298  21.9929778  26.2221237  57.0560182  23.0276329  25.4675835
  64.4531811  32.8278638  28.4729846  65.1835199  32.5663926  29.0337549
  63.8438756  32.0907360  28.5131914  62.5347108  30.9686501  29.0704297
  61.8080272  30.8342466  28.4620788  62.1194395  31.2763329  29.8761015
  50.3577284  34.6876430  36.8351670  51.2780294  34.8655029  37.0291716
  50.3226867  33.7432476  36.6831369  48.6581509  28.5608661  15.3105898
  47.7512964  28.2641773  15.3868612  48.9357490  28.2638479  14.4440184
  39.5759449  29.8815024  25.7604944  39.2562234  29.0280332  25.4679318
  39.0292878  30.0963602  26.5162912  43.3539357  32.5977465  29.4774451
  43.5725367  33.5294573  29.4962485  43.7665131  32.2385439  30.2629255
  50.2743575  23.1045550  21.4650139  49.4644303  22.7592635  21.8405385
  50.9627992  22.7953094  22.0537751  52.2034123  22.1823597  23.0874436
  52.7565162  22.6019051  23.7464459  52.4404209  21.2559345  23.1297392
  48.2267222  28.1710671  38.8677200  48.1263949  29.1205028  38.7989291
  48.0088764  27.8428910  37.9953270  47.4280294  25.4195596  15.4517877
  48.2899458  25.7450494  15.7113695  47.6130638  24.6327092  14.9390943
  39.4447709  33.5017936  27.7298066  38.7511181  33.0871888  27.2168020
  40.1920700  33.5438472  27.1331485  55.5812930  24.2924122  22.5953100
  55.0011599  24.9508926  22.2131153  55.3148863  23.4701467  22.1840518
  54.0316497  23.6929180  24.7974421  54.5316275  23.8045715  23.9888739
  54.6752104  23.3890233  25.4375229  41.3584452  33.4336189  25.6064081
  41.3355140  33.5323877  24.6545964  41.6685088  34.2801340  25.9281247
  44.0171830  35.4912344  29.7210695  44.9715083  35.4596287  29.6540627
  43.8184353  35.0302968  30.5360921  54.3637808  26.4524213  21.6509449
  53.4763663  26.7373863  21.4329643  54.7791797  26.2917976  20.8036725
  57.7152344  26.4770734  25.3663788  58.4912734  26.9667186  25.6388405
  56.9900478  26.9028788  25.8235657  60.1524903  27.1898353  26.4237728
  60.7469394  26.9494089  25.7131037  60.2251487  26.4705483  27.0511265
  42.3722059  41.0331964  26.7380893  42.2376527  40.2732365  26.1718891
  41.9554121  41.7572864  26.2709682  53.5081022  36.2168887  15.7457469
  54.2116872  36.4218890  16.3615124  52.7843670  36.7845649  16.0106552
  54.3378832  31.9678749  21.8659739  54.2814033  32.4247300  21.0267371
  54.8907174  31.2069433  21.6882581  58.1483638  27.7568480  22.6909858
  57.8920572  27.3565116  23.5218066  57.5236506  28.4712274  22.5659997
  62.4595976  30.4964554  25.1981150  61.8995534  30.5657743  25.9712712
  61.8539479  30.3205538  24.4780646  45.5291184  41.9301281  26.9499336
  45.4123569  42.8746713  26.8478026  44.7083631  41.6274842  27.3385135
  55.4167719  36.6551417  17.7955929  56.2513323  36.2232615  17.6133403
  55.2552062  36.4833430  18.7232823  55.0713611  33.1583530  19.1612268
  55.0162415  32.9927801  18.2200712  54.4459666  33.8659563  19.3174458
  52.3859518  35.4632442  38.4865831  53.2550678  35.6373094  38.1252466
  51.9066270  36.2826859  38.3641560  48.3809737  22.6591639  18.7397586
  48.3688407  23.6033479  18.8965857  49.2733159  22.4761784  18.4457047
  46.5545699  42.5829543  30.1655264  47.4572945  42.6153153  30.4821759
  46.3283069  41.6529994  30.1801600  48.3099301  41.3360529  26.8265343
  47.3594932  41.3362391  26.7129715  48.6131787  40.5893264  26.3101378
  52.1961856  19.2534415  22.9943523  51.4294252  18.6992902  23.1400205
  52.6072561  19.3256284  23.8557675  64.0451994  47.1721068  27.8911105
  64.6830404  47.0527815  27.1874445  63.9272837  48.1201912  27.9499057
  60.8541700  47.1248496  27.8272630  60.5160212  47.0089560  26.9393165
  61.7231469  46.7239661  27.8073636  56.7128516  48.9783972  23.8169521
  56.1493381  48.8873909  23.0485809  56.5980911  48.1583877  24.2972014
  61.3361483  48.2783347  33.7858836  61.3250124  47.8836146  32.9139339
  61.4982123  47.5449420  34.3792607  54.2592948  50.4735164  26.6553741
  55.0514240  50.1325988  26.2400041  54.4989598  50.5830139  27.5755895
  62.2928075  52.6454940  19.1283986  61.6416055  53.2309020  18.7418000
  63.0872438  53.1761135  19.1879023  56.2183702  49.7344077  19.5271120
  56.9914578  49.1873064  19.3883996  56.5709101  50.5988326  19.7385582
  58.0568745  51.0620459  32.7338020  57.7658611  51.9666090  32.6184686
  58.6925729  51.1036987  33.4482089  58.9824951  48.4397308  29.3239379
  59.5788524  48.2153330  28.6096342  59.0399923  47.6982053  29.9264827
  58.5549980  45.8936743  17.1589570  58.8075500  45.3718264  16.3973033
  57.6174539  45.7302889  17.2616254  63.5993263  44.8972522  24.9664313
  64.3856352  44.4791945  24.6154730  63.8631967  45.8018614  25.1345962
  63.7703340  50.3345372  19.6652970  63.1349173  50.4079998  20.3773875
  63.4400746  50.9238971  18.9872049  69.0001690  44.8347755  25.8697292
  69.7326862  44.2646972  26.1035121  68.2441045  44.4469355  26.3103797
  58.2746269  47.7964849  19.3613945  58.1582527  47.1209752  20.0295029
  58.3848528  47.3097223  18.5446098  60.6177809  47.2574996  23.0660634
  60.2536017  46.7305617  23.7773556  61.4744925  46.8673465  22.8927120
  66.5227110  38.5469329  30.3291900  66.1910435  39.4164740  30.1053115
  65.9272723  38.2305613  31.0085931  60.2583296  42.2864896  18.0621983
  60.4257699  43.1545132  18.4292454  60.0680466  42.4492178  17.1383272
  63.0158630  50.7481875  29.7287813  62.7159353  51.6506914  29.6203620
  62.6709689  50.4814058  30.5808966  56.4671111  47.1995672  25.7624518
  55.5421608  47.0671886  25.9702209  56.7155524  47.9789891  26.2594460
  66.4155773  43.2664415  27.4085251  65.5072651  43.1979823  27.1144012
  66.3643369  43.7436360  28.2367076  60.2372517  44.7422553  19.0468650
  60.1172143  45.1879604  19.8854130  59.5425106  45.0907871  18.4882188
  53.8279922  46.8428945  26.5968307  53.9572303  47.0963424  27.5107718
  53.1477373  47.4356653  26.2772962  57.9979409  57.5126195  22.6958781
  57.9203439  58.4634020  22.7747261  57.3941053  57.1672068  23.3533707
  60.4896639  44.6854061  35.3520148  59.7129973  45.2447981  35.3423012
  61.1287202  45.1710844  35.8735018  68.2817420  41.4680853  29.1863124
  67.6391800  41.7613387  28.5402919  67.7772348  41.3533774  29.9916321
  65.9357583  45.2144027  19.8748984  66.8475440  45.4471413  19.6996681
  65.4267231  45.7981071  19.3124062  58.7443011  47.4939514  34.9138115
  59.4857696  48.0324558  34.6372938  58.0379997  48.1205803  35.0709667
  64.2198351  49.6368654  33.5110276  64.6281707  49.1951065  32.7664909
  63.4975613  49.0621282  33.7644469  60.5729421  44.5741261  30.8843833
  61.4190616  44.9980675  31.0278482  60.5128059  43.9174885  31.5782396
  64.5427166  50.1969845  27.2662565  63.9136028  50.3615559  26.5638633
  64.1552828  50.6111455  28.0373529  68.4216398  51.1324283  24.6206929
  67.7367436  51.5123184  24.0703962  68.5060247  51.7419610  25.3538877
  63.7228867  42.2345630  32.5425007  63.4789798  42.9887690  32.0059283
  63.9988797  42.6130977  33.3772254  65.6767329  48.7784242  31.2202272
  65.8884225  49.4216002  30.5436654  65.6297078  47.9446558  30.7524203
  63.2793558  41.3902063  28.1238845  62.4178037  41.6883316  28.4155582
  63.3055993  41.6072461  27.1919877  60.0955128  49.9344253  24.5312650
  60.5593473  50.2131956  23.7417273  59.8311926  49.0327698  24.3485741
  56.9879209  49.4815735  27.4692414  57.5580566  49.9103003  26.8309898
  57.5787321  49.1998319  28.1676599  59.0324014  46.0567405  21.3402215
  59.7348057  46.5088449  21.8076142  58.7004642  45.4151224  21.9682109
  57.4804375  44.6479162  35.7153425  56.8503036  45.3295443  35.9488822
  57.3740463  44.5362244  34.7706563  52.7749348  44.3150958  26.6419349
  51.9848402  44.5708487  26.1659460  53.2660595  45.1299296  26.7471390
  66.7913157  51.6556197  29.3924630  67.6130601  51.2536385  29.1107311
  66.7875560  51.5524431  30.3440746  54.7264093  44.6795537  23.6002826
  53.9295256  44.7914232  24.1186321  54.4989685  45.0182190  22.7343716
  60.5569761  51.2040241  31.5485340  60.6214193  51.6660648  32.3843512
  59.8480685  50.5737606  31.6767650  51.0587051  44.5681449  29.0734340
  51.3095089  45.4528459  29.3391916  51.5946599  44.3886050  28.3009432
  74.8819150  47.9994946  25.7409601  74.1282859  47.4302344  25.5853606
  75.0166691  47.9657610  26.6880236  60.2717778  52.8708348  21.4164321
  60.1363453  53.7159884  21.8449168  60.8127591  53.0727626  20.6530254
  56.7585118  38.9499928  38.0778676  56.3652064  38.3966127  38.7526320
  57.5751258  39.2610506  38.4685193  53.7247176  50.3883786  21.9892246
  54.2371696  51.1827036  22.1397810  54.3769889  49.6910077  21.9225847
  55.5342060  53.5049542  24.0714999  55.7108689  54.4267507  23.8835983
  56.3298894  53.1907962  24.5009379  59.6753079  40.3657807  35.6698932
  60.4162792  40.9664960  35.5903395  59.9071002  39.6235445  35.1116975
  54.8194417  45.5514174  33.9477162  54.7047932  44.6499432  34.2484261
  53.9638935  45.7977871  33.5961979  61.8986255  53.4931915  35.5464663
  61.4550109  52.7068293  35.2285567  62.5603468  53.6811065  34.8808554
  56.6573376  55.0227716  30.0725341  57.2080801  54.8944780  29.3002335
  55.8184852  55.3222605  29.7220234  63.9967493  53.7734715  33.5746064
  63.9785968  54.5943596  33.0826333  64.9187413  53.6488790  33.7996205
  60.4540547  51.2878844  34.4169572  60.9868884  50.5267132  34.1868880
  59.9254628  50.9952496  35.1593727  63.6210242  36.3938910  29.9463214
  63.2774511  37.2840552  29.8702325  63.9889205  36.2040568  29.0832799
  51.6896093  48.7172440  22.7651816  52.5271315  49.1269449  22.5485524
  51.8674360  47.7771883  22.7352010  63.5860525  46.3847521  18.4535649
  63.0707148  47.1552126  18.6924037  63.3137833  45.7112657  19.0768711
  61.1707636  41.2297222  23.5120888  60.3149232  40.8404072  23.3326526
  61.5834587  41.3089183  22.6520673  62.7006782  38.7643565  27.9112447
  62.1971578  38.7273700  27.0980253  62.9937389  39.6736308  27.9709104
  58.9449668  38.8482295  26.9178629  59.8102665  38.6525104  26.5584519
  59.0127177  38.6192647  27.8447986  68.5594799  49.1379876  20.3888823
  67.7824242  48.7991035  19.9443985  69.2386280  49.1432499  19.7143788
  63.3746828  44.2574613  20.2795430  63.0696963  44.5720762  21.1305574
  64.3277270  44.3356033  20.3222763  61.8193260  50.4164837  21.9288384
  61.2914621  49.6817596  21.6161622  61.3180762  51.1939513  21.6828353
  66.7986106  48.6113857  27.0455431  66.1409780  49.3013118  27.1335559
  67.6026505  49.0010289  27.3889417  56.5511987  41.0784503  24.2894996
  57.1255739  40.8559684  23.5568189  57.1382970  41.1473197  25.0423597
  65.6091564  46.9658230  25.0959372  66.1223446  47.5988222  25.5981082
  66.2592788  46.3659425  24.7302732  56.8781574  43.1088964  18.3090881
  56.0418887  43.4463650  18.6300156  56.7386344  42.9737944  17.3718018
  58.8534655  37.9525752  23.0170065  58.1999067  37.6374769  22.3926680
  58.8115129  37.3301492  23.7429888  59.9645860  48.2345047  14.9323357
  59.0572922  48.0034300  15.1314506  60.4616892  47.4382666  15.1197339
  62.8713939  56.9442554  17.8520044  62.1975637  57.2474251  18.4605001
  63.2579761  57.7471634  17.5025501  62.0872395  44.4407685  27.3417713
  61.1694957  44.6622632  27.1839401  62.5032539  44.5153996  26.4829420
  62.8707443  45.8399101  22.4720393  63.6179262  46.3520498  22.1627515
  63.1399033  45.5183154  23.3324787  61.1434093  48.3357642  19.4547348
  60.2345313  48.0516674  19.5519817  61.1729177  48.7556720  18.5950654
  66.3753361  51.9464231  23.2238515  65.9215688  51.1055141  23.2803706
  65.7447327  52.5825630  23.5613295  65.3186280  42.8756217  24.4539183
  64.5809037  42.3633603  24.7849425  65.5713054  42.4356599  23.6422459
  64.8186300  53.7840728  24.1588333  65.1109274  54.3445785  23.4400699
  65.3284920  54.0769289  24.9141492  65.4197908  35.6532469  25.0480952
  65.7256784  34.7929833  24.7606867  66.1450512  36.2450089  24.8479946
  51.7122264  46.0563156  23.4362550  51.5146663  45.4632516  22.7113616
  51.1568928  45.7515366  24.1538489  59.6918987  45.9486262  25.5557143
  59.7467597  44.9960099  25.4799619  58.8810189  46.1045701  26.0398441
  60.8410181  49.8766385  16.7935426  60.4029611  49.1602244  16.3341063
  61.5820622  50.1042500  16.2320517  57.6311347  44.5663322  23.3147522
  56.8179213  44.8657493  23.7212714  58.1270341  44.1719011  24.0322004
  59.7819925  54.5621079  25.2481786  59.7396104  54.7881925  24.3190318
  60.6982624  54.3284454  25.3967588  63.2285559  45.0305146  32.1462416
  63.5834947  45.2576620  33.0056881  63.8757690  45.3623523  31.5239671
  68.9583296  48.1523582  22.8511745  68.8201194  48.3425178  21.9232934
  68.6019515  48.9142965  23.3079796  57.1225422  42.1381678  28.9308757
  57.7624801  41.9970437  28.2331720  56.2902953  41.8516191  28.5547359
  68.9852675  50.2200109  27.8623016  69.4189182  50.1275398  28.7106070
  69.6984256  50.1957610  27.2243032  57.8985726  51.4384108  25.0443749
  58.6926324  50.9434428  24.8426324  57.1877418  50.9101971  24.6811455
  62.7180570  53.8202203  29.3956117  62.7717593  54.3893140  30.1633833
  61.8495352  53.9904089  29.0310154  54.2068489  45.5827190  21.1203502
  53.2766077  45.5211645  21.3373464  54.3025961  45.0603142  20.3240143
  54.1254038  42.1082003  23.7081743  54.3860856  43.0227336  23.5990904
  54.9471211  41.6406445  23.8578356  55.5978964  43.5219760  30.8780568
  56.2702017  43.3137122  30.2293217  54.7708750  43.3241846  30.4385800
  69.8468225  50.2623810  30.3955902  70.0404115  51.1669621  30.6415176
  69.7468843  49.8031229  31.2294487  61.5004536  40.1481701  32.8946229
  60.8532451  40.8471650  32.8010705  62.2705551  40.5817845  33.2622477
  64.9083334  50.4130553  35.9696782  64.7568840  50.1841104  35.0526866
  64.8988013  51.3701154  35.9828127  61.6768670  47.9862466  30.9543049
  62.6060730  48.1373625  30.7812016  61.2559700  48.0746486  30.0991695
  60.4757002  52.0113130  28.7241586  60.3368088  51.6431914  29.5967524
  59.6871598  52.5260769  28.5525544  61.0705154  57.1122226  20.0667123
  61.2456910  56.6410270  20.8812745  60.3837942  57.7387993  20.2948383
  62.0262217  51.3894733  26.1130424  61.6912050  51.3495503  27.0088074
  61.5266163  50.7239449  25.6400834  56.0006461  46.7962363  31.6383005
  55.8626259  46.0642601  32.2394544  56.9111384  46.7071263  31.3567193
  64.9621409  48.7350767  16.3867484  64.3450579  48.0097595  16.2900536
  64.4937897  49.4960127  16.0434558  58.6288762  46.5082322  31.1266685
  59.3388380  45.8675514  31.0853303  58.5858070  46.7595217  32.0492866
  66.6175540  53.4449675  34.0473264  66.5588086  52.7608895  33.3803847
  67.0195059  54.1868665  33.5953890  57.3417696  43.4947540  32.9462324
  56.8055053  43.0438278  33.5983921  56.7534404  43.6293449  32.2032789
  55.6366239  60.2611589  26.8406983  55.8762837  60.8930113  27.5186001
  54.7935436  59.9099629  27.1272342  56.7519955  42.9536191  15.5088788
  55.8749421  42.8324992  15.1451035  57.2277708  42.1622270  15.2567677
  66.6192948  51.4089259  32.2787244  65.7319726  51.0715181  32.4013643
  67.1891499  50.6772290  32.5156009  48.2722095  47.7413351  25.6030295
  48.9593135  47.4275081  25.0151310  48.1170223  48.6454716  25.3297547
  53.0756817  42.6303548  30.0315319  52.9915006  42.0229217  29.2965729
  52.2539523  43.1212566  30.0324815  60.1494101  56.0690712  29.2448487
  60.0764272  56.8745683  29.7567791  59.7071494  56.2682677  28.4196508
  59.9383881  55.3062482  22.7551308  59.1551403  55.8484162  22.8489533
  60.6376626  55.8236461  23.1545550  63.2480531  41.1157111  25.3985514
  63.7449230  40.3627073  25.0786584  62.4767512  41.1521428  24.8328723
  71.1010288  46.8197477  27.0403805  71.0900164  47.7022192  26.6697738
  70.2327668  46.4669027  26.8458342  62.6092785  55.9677546  31.4006646
  63.3220757  56.6025010  31.3282547  62.1182813  56.0641412  30.5846647
  64.3310311  49.8728798  22.9723937  63.3966590  49.9930261  22.8028642
  64.5086980  48.9701265  22.7083947  59.8315499  43.2574494  25.1257198
  59.4613287  42.7045534  25.8138104  60.3274592  42.6532628  24.5732198
  67.7182863  45.7146118  23.5073971  68.1843315  46.5474109  23.4334274
  68.1690363  45.2491099  24.2119230  57.6604698  53.7171989  32.2212216
  58.3614158  54.3508472  32.3741611  57.1899813  54.0586721  31.4607856
  65.7859094  52.0589939  20.5060123  66.0618938  51.9446533  21.4153997
  64.9163593  51.6607424  20.4672297  65.6899526  38.0826705  27.5464873
  64.7762605  38.3130931  27.7147080  66.1192627  38.1665149  28.3978905
  65.4605984  46.2716597  30.0464767  64.8077434  46.5192504  29.3917220
  65.8386364  45.4580735  29.7127244  62.4213158  56.3076290  24.1492937
  62.6035552  55.4897946  24.6120689  63.2446144  56.5243982  23.7117827
  62.7555323  55.2344475  21.4107986  63.2843090  54.7236929  20.7978148
  63.0183543  54.9187005  22.2753519  61.5093557  47.0136408  36.5330804
  60.8334194  46.9130537  37.2033179  62.3321191  46.8575621  36.9966801
  53.2572416  53.2508344  29.1543319  53.8425853  52.5052032  29.2871223
  53.0597255  53.5612301  30.0379983  56.1111071  56.2859592  24.1705761
  55.4421447  56.7705719  23.6869802  55.9723941  56.5328812  25.0849140
  47.8490071  45.8213944  27.8747762  47.8874170  45.2877535  28.6684880
  47.3430364  45.2949150  27.2558739  60.2516340  58.3203335  30.7688420
  60.8034648  58.4834957  31.5337505  60.5922533  58.9107773  30.0968445
  55.2280833  40.6678485  31.3710305  55.2922160  41.5293316  30.9587702
  55.1647953  40.0552487  30.6382663  54.7033106  42.7401617  35.0183339
  55.3305144  42.3578695  35.6320863  53.8461025  42.5215819  35.3839031
  65.1027214  53.1464593  36.6237074  65.6467118  53.7594551  36.1292029
  64.5214059  53.7044171  37.1404087  51.4798648  44.5478047  20.9501694
  51.7752090  43.6388725  20.8968747  50.5786684  44.5265786  20.6282696
  63.3884727  56.2685311  27.7552102  63.2635867  55.4675050  27.2463047
  64.0463818  56.7631504  27.2666072  55.0092895  42.6234043  26.9329242
  54.2879481  43.2370011  26.7936716  55.7986151  43.1591808  26.8545888
  65.4519636  54.0694331  29.3831652  64.5049971  53.9499682  29.3109979
  65.8002409  53.1816829  29.4657914  57.8119209  39.9588470  33.2069894
  58.3353611  40.2050766  33.9696203  57.5931542  40.7908504  32.7873031
  53.2086490  42.2292144  21.0741019  52.8799196  41.3489523  20.8916125
  53.5625861  42.1739813  21.9617408  62.4566069  53.8647047  25.5836004
  62.3091031  52.9363754  25.7643574  63.2819562  53.8867138  25.0993080
  56.3228313  42.5165114  21.4416496  56.6624386  43.0451035  20.7195105
  56.7700434  42.8545520  22.2175063  66.0600191  54.6875606  26.6700877
  66.9846738  54.4818467  26.5325328  65.8915494  54.4392007  27.5790219
  59.0171754  40.9002165  30.8919564  58.6768574  40.1009978  31.2940244
  58.3110760  41.2003876  30.3196398  59.6688226  37.9851477  29.3446888
  60.4914295  37.5111955  29.2225778  59.9126289  38.7641961  29.8445574
  58.3096460  41.0139736  19.6409789  59.0304823  41.3920988  19.1373506
  57.6861764  41.7328612  19.7444767  62.4527583  41.7184885  20.5768122
  62.6691198  42.6009522  20.2756950  61.9721650  41.3271098  19.8473764
  57.1926805  44.6770598  27.1538866  57.0471385  44.9910901  28.0463148
  56.7152008  45.2955498  26.6009765  59.0523187  41.6673146  27.2019756
  59.0384756  40.7714239  26.8652054  59.7695616  41.6743809  27.8358042
  60.9049318  42.1010486  29.2472883  60.6467096  43.0227557  29.2457214
  60.3734359  41.7040920  29.9373347  65.8495507  55.2061273  22.0262969
  66.0232384  54.6407696  21.2736821  66.3424398  56.0062168  21.8442458
  51.6672467  47.2175942  30.0926527  51.1225935  47.9935750  30.2246802
  52.5451817  47.5646747  29.9345649  58.4560083  40.5487526  22.4707326
  58.5775995  39.6204172  22.6698213  58.1662126  40.5626212  21.5585641
  61.3251274  38.2342436  25.6074046  61.3472971  38.2981770  24.6526025
  61.7419333  37.3946945  25.8014552  71.7034898  47.9697696  23.6453268
  72.1466044  47.2205021  23.2472392  70.8261408  47.9607832  23.2627000
  66.8370679  54.5228037  19.1259867  67.5321584  55.1434730  19.3447181
  67.1793830  53.6723389  19.4012245  52.4538489  46.3445838  32.9856684
  51.7120225  46.4928474  33.5721315  52.1331233  46.6054104  32.1223434
  68.7362103  51.9727743  20.6547198  69.2613427  52.3115016  19.9296518
  68.6484455  51.0374758  20.4710332  60.3982151  55.8861817  32.7837074
  60.7069278  55.6410963  33.6559774  61.1957633  56.0908455  32.2955944
  60.4202763  58.0399726  25.0142451  59.9807754  57.5476105  25.7075307
  61.1710880  57.4972694  24.7734526  52.8995102  54.2311267  25.0167079
  53.7253122  53.9315039  24.6365722  52.5489154  53.4618890  25.4656867
  57.8676635  53.5837735  27.0864752  57.2456645  52.9208440  26.7866980
  58.5381502  53.6098867  26.4038400  51.1003707  52.1497594  25.9756012
  50.2635616  51.7219768  25.7940014  51.0727353  52.3430037  26.9126804
  57.9401163  42.0619523  36.6797258  57.9889318  42.9381646  36.2975028
  58.4823677  41.5196916  36.1068902  68.4256009  52.6060647  35.9598396
  67.6351552  52.5884785  35.4202895  68.1889363  53.1448940  36.7147432
  68.5453884  49.4553113  33.2731124  68.5951889  49.2903120  34.2146647
  68.4367807  48.5880372  32.8829005  57.4290142  52.1341659  20.5623213
  57.5778263  52.8177123  19.9089886  58.2356586  52.1146749  21.0772669
  65.8357646  45.4384041  34.5890431  66.7367509  45.2990506  34.2974429
  65.9105621  45.6038496  35.5288608  60.1700451  42.8150896  33.4343617
  59.3003761  43.1084462  33.1626206  60.4059932  43.3991341  34.1550881
  70.0472080  51.8750055  33.5173146  69.7556889  52.2380035  34.3536607
  69.4344212  51.1617063  33.3386478  71.2467763  49.4402934  26.0375716
  72.0814654  49.8792738  26.2013276  71.3826892  48.9641588  25.2183962
  68.2959269  46.9982669  31.9853204  68.7713390  47.1910315  31.1772055
  67.3724834  47.0541855  31.7396587  55.1842775  48.1606836  21.5684282
  54.9388817  47.2569166  21.7664492  55.3538690  48.1623987  20.6263760
  62.8739485  39.0330513  30.9509037  63.3921429  39.7691540  30.6255526
  62.5194618  39.3394506  31.7855797  54.4538423  43.8935194  19.0670443
  53.7607668  43.9679549  18.4110479  54.2090175  43.1295538  19.5891960
  63.1252079  35.4530795  26.4709934  63.4053833  34.7853984  27.0970361
  63.9102686  35.6459891  25.9584598  60.9285548  54.6289789  18.0334960
  60.3559515  55.2479976  17.5805432  61.5018342  55.1789151  18.5674882
  66.9960938  43.8748429  30.2181509  67.9478361  43.9746527  30.2393733
  66.8264388  43.0826698  30.7279594  65.0175317  40.9604012  30.4040910
  64.4225249  41.2409025  29.7087399  64.7325014  41.4497913  31.1757651
  64.1482808  54.9126939  19.1643543  65.0813481  54.8472501  19.3676418
  64.0606020  55.7483206  18.7058075  66.7770824  54.2292810  16.1247490
  66.6984456  53.8952673  17.0183248  67.5980491  54.7214578  16.1238963
  69.4749016  47.0954549  29.3323809  69.4425336  46.1570550  29.5183493
  70.0849639  47.1738586  28.5989634  61.3132346  45.9650602  15.3751013
  62.2591451  45.8356810  15.4439431  60.9346591  45.2265264  15.8520441
  69.6243504  43.8865592  29.3782092  69.1082553  43.1024049  29.1912021
  70.5083453  43.5584309  29.5428611  67.2854231  37.6306608  25.3377905
  67.0879052  37.3221696  26.2221237  67.8953936  38.3568247  25.4675835
  75.2925565  48.1570556  28.4729846  76.0228954  47.8955844  29.0337549
  74.6832511  47.4199278  28.5131914  73.3740862  46.2978418  29.0704297
  72.6474026  46.1634383  28.4620788  72.9588149  46.6055247  29.8761015
  61.1971039  50.0168348  36.8351670  62.1174048  50.1946947  37.0291716
  61.1620622  49.0724393  36.6831369  59.4975264  43.8900578  15.3105898
  58.5906719  43.5933691  15.3868612  59.7751245  43.5930396  14.4440184
  50.4153204  45.2106942  25.7604944  50.0955988  44.3572250  25.4679318
  49.8686632  45.4255520  26.5162912  54.1933111  47.9269383  29.4774451
  54.4119121  48.8586491  29.4962485  54.6058885  47.5677357  30.2629255
  61.1137329  38.4337468  21.4650139  60.3038058  38.0884553  21.8405385
  61.8021746  38.1245012  22.0537751  63.0427878  37.5115515  23.0874436
  63.5958916  37.9310968  23.7464459  63.2797964  36.5851263  23.1297392
  59.0660977  43.5002588  38.8677200  58.9657704  44.4496945  38.7989291
  58.8482519  43.1720827  37.9953270  58.2674048  40.7487514  15.4517877
  59.1293212  41.0742412  15.7113695  58.4524392  39.9619009  14.9390943
  50.2841464  48.8309853  27.7298066  49.5904935  48.4163806  27.2168020
  51.0314455  48.8730390  27.1331485  66.4206685  39.6216040  22.5953100
  65.8405354  40.2800844  22.2131153  66.1542617  38.7993385  22.1840518
  64.8710251  39.0221098  24.7974421  65.3710029  39.1337632  23.9888739
  65.5145859  38.7182151  25.4375229  58.9292247  46.9299727  37.6842262
  58.4459329  47.7300087  37.8906151  59.0153186  46.9407672  36.7309706
  52.1978206  48.7628107  25.6064081  52.1748895  48.8615794  24.6545964
  52.5078843  49.6093258  25.9281247  54.8565584  50.8204262  29.7210695
  55.8108838  50.7888204  29.6540627  54.6578108  50.3594886  30.5360921
  55.4464966  49.3905378  32.2881493  56.2657855  49.8849457  32.3116330
  55.7201774  48.4737346  32.2599061  65.2031563  41.7816130  21.6509449
  64.3157418  42.0665781  21.4329643  65.6185552  41.6209894  20.8036725
  68.5546099  41.8062651  25.3663788  69.3306489  42.2959104  25.6388405
  67.8294233  42.2320706  25.8235657  70.9918657  42.5190271  26.4237728
  71.5863148  42.2786007  25.7131037  71.0645241  41.7997401  27.0511265
  53.2115813  56.3623881  26.7380893  53.0770281  55.6024282  26.1718891
  52.7947875  57.0864781  26.2709682  64.3474776  51.5460805  15.7457469
  65.0510626  51.7510808  16.3615124  63.6237425  52.1137567  16.0106552
  65.1772586  47.2970666  21.8659739  65.1207788  47.7539218  21.0267371
  65.7300929  46.5361351  21.6882581  68.9877392  43.0860398  22.6909858
  68.7314327  42.6857034  23.5218066  68.3630260  43.8004192  22.5659997
  73.2989730  45.8256471  25.1981150  72.7389288  45.8949661  25.9712712
  72.6933234  45.6497456  24.4780646  56.3684939  57.2593199  26.9499336
  56.2517323  58.2038631  26.8478026  55.5477385  56.9566760  27.3385135
  66.2561474  51.9843334  17.7955929  67.0907077  51.5524533  17.6133403
  66.0945816  51.8125348  18.7232823  65.9107366  48.4875448  19.1612268
  65.8556169  48.3219719  18.2200712  65.2853421  49.1951480  19.3174458
  63.2253273  50.7924359  38.4865831  64.0944433  50.9665012  38.1252466
  62.7460024  51.6118776  38.3641560  59.2203491  37.9883557  18.7397586
  59.2082161  38.9325396  18.8965857  60.1126913  37.8053702  18.4457047
  57.3939453  57.9121460  30.1655264  58.2966700  57.9445071  30.4821759
  57.1676823  56.9821911  30.1801600  59.1493055  56.6652447  26.8265343
  58.1988686  56.6654309  26.7129715  59.4525541  55.9185182  26.3101378
  63.0355611  34.5826333  22.9943523  62.2688006  34.0284820  23.1400205
  63.4466316  34.6548202  23.8557675  55.0397372  40.8711129  37.0848704
  55.9028833  40.5147934  37.2952029  54.4662782  40.5325024  37.7724109
  74.8845749  62.5012985  27.8911105  75.5224159  62.3819733  27.1874445
  74.7666592  63.4493829  27.9499057  71.6935455  62.4540413  27.8272630
  71.3553966  62.3381478  26.9393165  72.5625223  62.0531579  27.8073636
  67.5522271  64.3075890  23.8169521  66.9887136  64.2165827  23.0485809
  67.4374666  63.4875794  24.2972014  72.1755238  63.6075265  33.7858836
  72.1643879  63.2128063  32.9139339  72.3375877  62.8741338  34.3792607
  65.0986703  65.8027081  26.6553741  65.8907994  65.4617906  26.2400041
  65.3383353  65.9122057  27.5755895  67.0577456  65.0635995  19.5271120
  67.8308332  64.5164982  19.3883996  67.4102855  65.9280244  19.7385582
  68.8962499  66.3912377  32.7338020  68.6052365  67.2958008  32.6184686
  69.5319483  66.4328905  33.4482089  69.8218706  63.7689225  29.3239379
  70.4182278  63.5445248  28.6096342  69.8793677  63.0273971  29.9264827
  74.4387017  60.2264439  24.9664313  75.2250106  59.8083862  24.6154730
  74.7025721  61.1310531  25.1345962  69.1140023  63.1256767  19.3613945
  68.9976281  62.4501670  20.0295029  69.2242283  62.6389141  18.5446098
  71.4571564  62.5866914  23.0660634  71.0929771  62.0597535  23.7773556
  72.3138680  62.1965383  22.8927120  77.3620865  53.8761246  30.3291900
  77.0304189  54.7456657  30.1053115  76.7666478  53.5597530  31.0085931
  71.0977051  57.6156814  18.0621983  71.2651453  58.4837050  18.4292454
  70.9074220  57.7784095  17.1383272  73.8552384  66.0773792  29.7287813
  73.5553107  66.9798831  29.6203620  73.5103444  65.8105976  30.5808966
  67.3064866  62.5287589  25.7624518  66.3815362  62.3963803  25.9702209
  67.5549279  63.3081809  26.2594460  77.2549528  58.5956333  27.4085251
  76.3466405  58.5271741  27.1144012  77.2037124  59.0728278  28.2367076
  71.0766272  60.0714471  19.0468650  70.9565897  60.5171522  19.8854130
  70.3818860  60.4199789  18.4882188  64.6673677  62.1720863  26.5968307
  64.7966058  62.4255342  27.5107718  63.9871128  62.7648571  26.2772962
  71.3290394  60.0145978  35.3520148  70.5523728  60.5739898  35.3423012
  71.9680957  60.5002761  35.8735018  69.5836766  62.8231432  34.9138115
  70.3251450  63.3616476  34.6372938  68.8773751  63.4497720  35.0709667
  75.0592106  64.9660572  33.5110276  75.4675462  64.5242983  32.7664909
  74.3369367  64.3913200  33.7644469  71.4123176  59.9033179  30.8843833
  72.2584371  60.3272592  31.0278482  71.3521813  59.2466803  31.5782396
  75.3820920  65.5261763  27.2662565  74.7529783  65.6907477  26.5638633
  74.9946582  65.9403372  28.0373529  74.5622621  57.5637547  32.5425007
  74.3183553  58.3179608  32.0059283  74.8382552  57.9422895  33.3772254
  76.5161084  64.1076160  31.2202272  76.7277979  64.7507919  30.5436654
  76.4690832  63.2738476  30.7524203  74.1187313  56.7193980  28.1238845
  73.2571792  57.0175234  28.4155582  74.1449747  56.9364379  27.1919877
  70.9348882  65.2636171  24.5312650  71.3987228  65.5423874  23.7417273
  70.6705680  64.3619615  24.3485741  67.8272963  64.8107652  27.4692414
  68.3974320  65.2394921  26.8309898  68.4181075  64.5290237  28.1676599
  69.8717768  61.3859323  21.3402215  70.5741812  61.8380367  21.8076142
  69.5398397  60.7443142  21.9682109  68.3198130  59.9771080  35.7153425
  67.6896790  60.6587361  35.9488822  68.2134218  59.8654161  34.7706563
  63.6143102  59.6442876  26.6419349  62.8242156  59.9000404  26.1659460
  64.1054350  60.4591214  26.7471390  77.6306912  66.9848115  29.3924630
  78.4524355  66.5828302  29.1107311  77.6269315  66.8816349  30.3440746
  65.5657848  60.0087455  23.6002826  64.7689011  60.1206149  24.1186321
  65.3383440  60.3474107  22.7343716  71.3963515  66.5332158  31.5485340
  71.4607948  66.9952566  32.3843512  70.6874439  65.9029523  31.6767650
  61.8980805  59.8973366  29.0734340  62.1488844  60.7820376  29.3391916
  62.4340354  59.7177968  28.3009432  67.5978872  54.2791846  38.0778676
  67.2045818  53.7258044  38.7526320  68.4145013  54.5902424  38.4685193
  64.5640930  65.7175704  21.9892246  65.0765451  66.5118954  22.1397810
  65.2163643  65.0201994  21.9225847  66.3735815  68.8341460  24.0714999
  66.5502443  69.7559425  23.8835983  67.1692648  68.5199879  24.5009379
  70.5146833  55.6949725  35.6698932  71.2556547  56.2956878  35.5903395
  70.7464756  54.9527363  35.1116975  65.6588171  60.8806092  33.9477162
  65.5441687  59.9791349  34.2484261  64.8032689  61.1269789  33.5961979
  72.7380009  68.8223832  35.5464663  72.2943863  68.0360211  35.2285567
  73.3997223  69.0102983  34.8808554  67.4967130  70.3519634  30.0725341
  68.0474556  70.2236697  29.3002335  66.6578606  70.6514523  29.7220234
  71.2934301  66.6170762  34.4169572  71.8262638  65.8559050  34.1868880
  70.7648383  66.3244414  35.1593727  74.4603996  51.7230828  29.9463214
  74.1168266  52.6132469  29.8702325  74.8282959  51.5332485  29.0832799
  62.5289847  64.0464358  22.7651816  63.3665069  64.4561366  22.5485524
  62.7068115  63.1063800  22.7352010  72.0101390  56.5589140  23.5120888
  71.1542986  56.1695990  23.3326526  72.4228342  56.6381100  22.6520673
  73.5400537  54.0935483  27.9112447  73.0365332  54.0565618  27.0980253
  73.8331144  55.0028226  27.9709104  69.7843423  54.1774213  26.9178629
  70.6496419  53.9817021  26.5584519  69.8520932  53.9484564  27.8447986
  74.2140582  59.5866531  20.2795430  73.9090718  59.9012680  21.1305574
  75.1671024  59.6647951  20.3222763  72.6587014  65.7456754  21.9288384
  72.1308376  65.0109514  21.6161622  72.1574517  66.5231431  21.6828353
  77.6379860  63.9405775  27.0455431  76.9803535  64.6305036  27.1335559
  78.4420259  64.3302207  27.3889417  67.3905742  56.4076420  24.2894996
  67.9649494  56.1851602  23.5568189  67.9776724  56.4765115  25.0423597
  76.4485319  62.2950147  25.0959372  76.9617201  62.9280139  25.5981082
  77.0986543  61.6951343  24.7302732  67.7175329  58.4380882  18.3090881
  66.8812641  58.7755568  18.6300156  67.5780098  58.3029861  17.3718018
  69.6928409  53.2817669  23.0170065  69.0392822  52.9666687  22.3926680
  69.6508884  52.6593410  23.7429888  72.9266150  59.7699603  27.3417713
  72.0088711  59.9914550  27.1839401  73.3426293  59.8445913  26.4829420
  73.7101198  61.1691019  22.4720393  74.4573017  61.6812416  22.1627515
  73.9792787  60.8475071  23.3324787  76.1580035  58.2048135  24.4539183
  75.4202792  57.6925521  24.7849425  76.4106808  57.7648516  23.6422459
  76.2591662  50.9824387  25.0480952  76.5650539  50.1221750  24.7606867
  76.9844267  51.5742007  24.8479946  62.5516018  61.3855073  23.4362550
  62.3540418  60.7924434  22.7113616  61.9962682  61.0807284  24.1538489
  70.5312742  61.2778180  25.5557143  70.5861352  60.3252016  25.4799619
  69.7203944  61.4337619  26.0398441  68.4705102  59.8955240  23.3147522
  67.6572967  60.1949410  23.7212714  68.9664096  59.5010928  24.0322004
  70.6213680  69.8912997  25.2481786  70.5789858  70.1173843  24.3190318
  71.5376378  69.6576371  25.3967588  74.0679313  60.3597064  32.1462416
  74.4228701  60.5868537  33.0056881  74.7151445  60.6915441  31.5239671
  67.9619176  57.4673595  28.9308757  68.6018556  57.3262354  28.2331720
  67.1296707  57.1808109  28.5547359  68.7379480  66.7676026  25.0443749
  69.5320079  66.2726346  24.8426324  68.0271173  66.2393889  24.6811455
  73.5574325  69.1494121  29.3956117  73.6111347  69.7185057  30.1633833
  72.6889106  69.3196006  29.0310154  65.0462244  60.9119107  21.1203502
  64.1159832  60.8503563  21.3373464  65.1419716  60.3895060  20.3240143
  64.9647793  57.4373920  23.7081743  65.2254610  58.3519253  23.5990904
  65.7864965  56.9698363  23.8578356  66.4372718  58.8511677  30.8780568
  67.1095772  58.6429039  30.2293217  65.6102505  58.6533763  30.4385800
  72.3398290  55.4773618  32.8946229  71.6926205  56.1763568  32.8010705
  73.1099306  55.9109762  33.2622477  75.7477088  65.7422470  35.9696782
  75.5962595  65.5133022  35.0526866  75.7381768  66.6993072  35.9828127
  72.5162425  63.3154383  30.9543049  73.4454485  63.4665543  30.7812016
  72.0953455  63.4038404  30.0991695  71.3150756  67.3405048  28.7241586
  71.1761842  66.9723832  29.5967524  70.5265353  67.8552687  28.5525544
  72.8655972  66.7186650  26.1130424  72.5305804  66.6787420  27.0088074
  72.3659917  66.0531366  25.6400834  66.8400215  62.1254280  31.6383005
  66.7020013  61.3934519  32.2394544  67.7505139  62.0363180  31.3567193
  69.4682516  61.8374240  31.1266685  70.1782135  61.1967432  31.0853303
  69.4251824  62.0887134  32.0492866  68.1811450  58.8239458  32.9462324
  67.6448807  58.3730196  33.5983921  67.5928159  58.9585366  32.2032789
  67.5913709  58.2828109  15.5088788  66.7143175  58.1616910  15.1451035
  68.0671462  57.4914187  15.2567677  77.4586702  66.7381177  32.2787244
  76.5713481  66.4007099  32.4013643  78.0285253  66.0064208  32.5156009
  59.1115849  63.0705269  25.6030295  59.7986889  62.7566999  25.0151310
  58.9563978  63.9746633  25.3297547  63.9150571  57.9595465  30.0315319
  63.8308760  57.3521135  29.2965729  63.0933278  58.4504484  30.0324815
  70.9887855  71.3982629  29.2448487  70.9158027  72.2037601  29.7567791
  70.5465249  71.5974595  28.4196508  74.0874285  56.4449029  25.3985514
  74.5842985  55.6918991  25.0786584  73.3161267  56.4813345  24.8328723
  75.1704066  65.2020716  22.9723937  74.2360345  65.3222178  22.8028642
  75.3480734  64.2993183  22.7083947  70.6709254  58.5866412  25.1257198
  70.3007041  58.0337452  25.8138104  71.1668346  57.9824545  24.5732198
  68.4998453  69.0463907  32.2212216  69.2007912  69.6800390  32.3741611
  68.0293568  69.3878638  31.4607856  76.5293280  53.4118622  27.5464873
  75.6156360  53.6422849  27.7147080  76.9586381  53.4957066  28.3978905
  76.2999739  61.6008514  30.0464767  75.6471189  61.8484422  29.3917220
  76.6780118  60.7872652  29.7127244  72.3487312  62.3428325  36.5330804
  71.6727949  62.2422455  37.2033179  73.1714945  62.1867539  36.9966801
  64.0966171  68.5800262  29.1543319  64.6819607  67.8343950  29.2871223
  63.8991009  68.8904219  30.0379983  66.9504826  71.6151509  24.1705761
  66.2815201  72.0997637  23.6869802  66.8117696  71.8620730  25.0849140
  58.6883825  61.1505862  27.8747762  58.7267925  60.6169453  28.6684880
  58.1824118  60.6241068  27.2558739  66.0674588  55.9970403  31.3710305
  66.1315914  56.8585233  30.9587702  66.0041708  55.3844404  30.6382663
  65.5426860  58.0693535  35.0183339  66.1698899  57.6870612  35.6320863
  64.6854779  57.8507737  35.3839031  62.3192403  59.8769964  20.9501694
  62.6145844  58.9680643  20.8968747  61.4180439  59.8557704  20.6282696
  65.8486650  57.9525961  26.9329242  65.1273236  58.5661928  26.7936716
  66.6379906  58.4883726  26.8545888  68.6512963  55.2880387  33.2069894
  69.1747365  55.5342684  33.9696203  68.4325297  56.1200422  32.7873031
  64.0480245  57.5584062  21.0741019  63.7192951  56.6781441  20.8916125
  64.4019615  57.5031731  21.9617408  73.2959823  69.1938965  25.5836004
  73.1484786  68.2655672  25.7643574  74.1213317  69.2159055  25.0993080
  67.1622068  57.8457032  21.4416496  67.5018140  58.3742953  20.7195105
  67.6094188  58.1837438  22.2175063  69.8565508  56.2294082  30.8919564
  69.5162329  55.4301895  31.2940244  69.1504515  56.5295793  30.3196398
  70.5081980  53.3143395  29.3446888  71.3308050  52.8403873  29.2225778
  70.7520044  54.0933879  29.8445574  69.1490215  56.3431653  19.6409789
  69.8698577  56.7212906  19.1373506  68.5255519  57.0620530  19.7444767
  73.2921338  57.0476802  20.5768122  73.5084952  57.9301440  20.2756950
  72.8115405  56.6563016  19.8473764  68.0320559  60.0062515  27.1538866
  67.8865140  60.3202818  28.0463148  67.5545763  60.6247416  26.6009765
  69.8916942  56.9965063  27.2019756  69.8778511  56.1006157  26.8652054
  70.6089370  57.0035727  27.8358042  71.7443073  57.4302404  29.2472883
  71.4860850  58.3519474  29.2457214  71.2128113  57.0332838  29.9373347
  62.5066221  62.5467860  30.0926527  61.9619689  63.3227668  30.2246802
  63.3845571  62.8938664  29.9345649  69.2953838  55.8779444  22.4707326
  69.4169749  54.9496090  22.6698213  69.0055880  55.8918130  21.5585641
  72.1645028  53.5634354  25.6074046  72.1866725  53.6273687  24.6526025
  72.5813087  52.7238863  25.8014552  63.2932243  61.6737756  32.9856684
  62.5513979  61.8220391  33.5721315  62.9724987  61.9346022  32.1223434
  71.2375906  71.2153734  32.7837074  71.5463032  70.9702881  33.6559774
  72.0351388  71.4200373  32.2955944  63.7388857  69.5603185  25.0167079
  64.5646877  69.2606957  24.6365722  63.3882909  68.7910807  25.4656867
  68.7070390  68.9129653  27.0864752  68.0850399  68.2500358  26.7866980
  69.3775257  68.9390785  26.4038400  61.9397462  67.4789511  25.9756012
  61.1029370  67.0511686  25.7940014  61.9121107  67.6721955  26.9126804
  68.7794917  57.3911441  36.6797258  68.8283073  58.2673564  36.2975028
  69.3217432  56.8488834  36.1068902  76.6751401  60.7675959  34.5890431
  77.5761263  60.6282424  34.2974429  76.7499375  60.9330414  35.5288608
  71.0094206  58.1442813  33.4343617  70.1397515  58.4376380  33.1626206
  71.2453686  58.7283258  34.1550881  66.0236530  63.4898754  21.5684282
  65.7782572  62.5861084  21.7664492  66.1932444  63.4915904  20.6263760
  73.7133240  54.3622430  30.9509037  74.2315184  55.0983457  30.6255526
  73.3588372  54.6686424  31.7855797  65.2932177  59.2227112  19.0670443
  64.6001422  59.2971467  18.4110479  65.0483929  58.4587455  19.5891960
  73.9645834  50.7822713  26.4709934  74.2447588  50.1145902  27.0970361
  74.7496441  50.9751809  25.9584598  75.8569072  56.2895930  30.4040910
  75.2619004  56.5700943  29.7087399  75.5718768  56.7789831  31.1757651
  72.0364793  65.3460266  36.8351670  72.9567803  65.5238865  37.0291716
  72.0014376  64.4016311  36.6831369  61.2546958  60.5398859  25.7604944
  60.9349743  59.6864168  25.4679318  60.7080387  60.7547438  26.5162912
  65.0326866  63.2561300  29.4774451  65.2512876  64.1878408  29.4962485
  65.4452640  62.8969275  30.2629255  71.9531084  53.7629386  21.4650139
  71.1431812  53.4176471  21.8405385  72.6415501  53.4536929  22.0537751
  73.8821632  52.8407432  23.0874436  74.4352671  53.2602886  23.7464459
  74.1191718  51.9143181  23.1297392  69.9054731  58.8294506  38.8677200
  69.8051458  59.7788863  38.7989291  69.6876273  58.5012745  37.9953270
  69.1067803  56.0779431  15.4517877  69.9686967  56.4034330  15.7113695
  69.2918147  55.2910927  14.9390943  61.1235218  64.1601771  27.7298066
  60.4298690  63.7455724  27.2168020  61.8708209  64.2022307  27.1331485
  77.2600439  54.9507958  22.5953100  76.6799108  55.6092762  22.2131153
  76.9936372  54.1285302  22.1840518  75.7104005  54.3513015  24.7974421
  76.2103784  54.4629550  23.9888739  76.3539613  54.0474068  25.4375229
  69.7686001  62.2591645  37.6842262  69.2853083  63.0592005  37.8906151
  69.8546940  62.2699590  36.7309706  63.0371961  64.0920025  25.6064081
  63.0142649  64.1907712  24.6545964  63.3472597  64.9385175  25.9281247
  65.6959339  66.1496180  29.7210695  66.6502592  66.1180122  29.6540627
  65.4971862  65.6886803  30.5360921  66.2858721  64.7197296  32.2881493
  67.1051610  65.2141374  32.3116330  66.5595529  63.8029264  32.2599061
  76.0425317  57.1108048  21.6509449  75.1551172  57.3957699  21.4329643
  76.4579306  56.9501811  20.8036725  64.0509568  71.6915799  26.7380893
  63.9164036  70.9316200  26.1718891  63.6341630  72.4156699  26.2709682
  76.0166341  62.6262584  21.8659739  75.9601542  63.0831135  21.0267371
  76.5694683  61.8653269  21.6882581  67.2078693  72.5885116  26.9499336
  67.0911078  73.5330549  26.8478026  66.3871140  72.2858678  27.3385135
  61.5393635  59.0535430  32.9873690  62.1852499  58.5434384  33.4760915
  61.3310786  59.7904111  33.5617115  74.0647027  66.1216277  38.4865831
  74.9338187  66.2956929  38.1252466  73.5853779  66.9410694  38.3641560
  70.0597246  53.3175474  18.7397586  70.0475915  54.2617314  18.8965857
  70.9520668  53.1345620  18.4457047  68.2333208  73.2413378  30.1655264
  69.1360454  73.2736988  30.4821759  68.0070578  72.3113829  30.1801600
  69.9886810  71.9944365  26.8265343  69.0382441  71.9946226  26.7129715
  70.2919296  71.2477099  26.3101378  73.8749365  49.9118251  22.9943523
  73.1081761  49.3576738  23.1400205  74.2860070  49.9840120  23.8557675
  65.8791126  56.2003047  37.0848704  66.7422588  55.8439852  37.2952029
  65.3056537  55.8616941  37.7724109  36.3781237  -2.5901253  19.4583326
  36.0871103  -1.6855623  19.3429992  37.0138221  -2.5484726  20.1727396
  40.2198747  -0.1589798  22.2709969  39.7762601  -0.9453420  21.9530874
  40.8815961   0.0289352  21.6053860  34.9785868   1.3706003  16.7970648
  35.5293293   1.2423067  16.0247642  34.1397344   1.6700892  16.4465541
  42.3179985   0.1213002  20.2991371  42.2998460   0.9421883  19.8071640
  43.2399905  -0.0032923  20.5241512  41.0393063   0.1680491  16.1201423
  41.0930085   0.7371427  16.8879139  40.1707844   0.3382376  15.7555461
  33.9578731   6.6089876  13.5652290  34.1975330   7.2408401  14.2431308
  33.1147928   6.2577916  13.8517649  38.4706593   2.4168999  15.9693794
  38.3976765   3.2223970  16.4813098  38.0283986   2.6160965  15.1441815
  40.9305277   2.3155833  18.1251952  41.6433249   2.9503298  18.0527854
  40.4395305   2.4119699  17.3091954  35.9817190   0.0650276  18.9457523
  36.6826650   0.6986759  19.0986917  35.5112305   0.4065008  18.1853162
  38.5728832   4.6681622  17.4933726  39.1247140   4.8313244  18.2582812
  38.9135026   5.2586060  16.8213751  41.7097219   2.6163598  14.4797409
  41.5848359   1.8153338  13.9708354  42.3676311   3.1109791  13.9911379
  44.3812683   1.0353893  13.3946184  45.3059230   0.8296754  13.2570635
  44.2127986   0.7870294  14.3035525  38.7194644   2.2340104  19.5082381
  39.0281770   1.9889251  20.3805080  39.5170126   2.4386742  19.0201251
  35.7151945   4.2599748  16.8900571  36.6179192   4.2923358  17.2067066
  35.4889315   3.3300199  16.9046907  53.2058241   8.8491273  14.6156412
  53.8436651   8.7298020  13.9119752  53.0879084   9.7972117  14.6744364
  50.0147947   8.8018701  14.5517937  49.6766459   8.6859765  13.6638472
  50.8837715   8.4009866  14.5318943  45.8734763  10.6554177  10.5414828
  45.3099628  10.5644114   9.7731115  45.7587158   9.8354082  11.0217320
  50.4967730   9.9553552  20.5104142  50.4856371   9.5606351  19.6384646
  50.6588370   9.2219625  21.1037914  43.4199195  12.1505369  13.3799048
  44.2120487  11.8096193  12.9645347  43.6595845  12.2600344  14.3001201
  51.4534322  14.3225145   5.8529293  50.8022301  14.9079225   5.4663306
  52.2478684  14.8531340   5.9124330  45.3789949  11.4114282   6.2516427
  46.1520825  10.8643269   6.1129303  45.7315348  12.2758531   6.4630888
  47.2174991  12.7390664  19.4583326  46.9264857  13.6436295  19.3429992
  47.8531976  12.7807192  20.1727396  48.1431198  10.1167513  16.0484686
  48.7394770   9.8923535  15.3341649  48.2006170   9.3752258  16.6510134
  52.7599509   6.5742726  11.6909620  53.5462599   6.1562150  11.3400037
  53.0238214   7.4788819  11.8591268  52.9309587  12.0115577   6.3898277
  52.2955420  12.0850203   7.1019181  52.6006993  12.6009176   5.7117356
  58.1607937   6.5117960  12.5942599  58.8933108   5.9417176  12.8280428
  57.4047292   6.1239560  13.0349104  49.7784056   8.9345201   9.7905941
  49.4142263   8.4075822  10.5018862  50.6351172   8.5443670   9.6172426
  52.1764876  12.4252080  16.4533120  51.8765599  13.3277119  16.3448927
  51.8315936  12.1584263  17.3054273  45.6277358   8.8765877  12.4869824
  44.7027854   8.7442091  12.6947516  45.8761771   9.6560096  12.9839767
  55.5762020   4.9434620  14.1330557  54.6678898   4.8750028  13.8389318
  55.5249616   5.4206565  14.9612383  42.9886169   8.5199150  13.3213613
  43.1178550   8.7733629  14.2353025  42.3083620   9.1126858  13.0018268
  47.1585656  19.1896400   9.4204088  47.0809686  20.1404225   9.4992568
  46.5547300  18.8442273  10.0779014  49.6502886   6.3624266  22.0765454
  48.8736220   6.9218186  22.0668319  50.2893449   6.8481048  22.5980325
  47.9049258   9.1709719  21.6383421  48.6463943   9.7094763  21.3618245
  47.1986244   9.7976008  21.7954973  53.3804598  11.3138859  20.2355583
  53.7887954  10.8721270  19.4910215  52.6581859  10.7391487  20.4889776
  49.7335668   6.2511466  17.6089140  50.5796863   6.6750880  17.7523789
  49.6734306   5.5945090  18.3027703  53.7033413  11.8740050  13.9907872
  53.0742275  12.0385764  13.2883940  53.3159075  12.2881660  14.7618836
  57.5822644  12.8094488  11.3452236  56.8973683  13.1893389  10.7949269
  57.6666494  13.4189814  12.0784183  52.8835113   3.9115834  19.2670314
  52.6396045   4.6657895  18.7304589  53.1595044   4.2901182  20.1017561
  54.8373576  10.4554447  17.9447579  55.0490471  11.0986207  17.2681960
  54.7903324   9.6216763  17.4769509  52.4399805   3.0672267  14.8484151
  51.5784284   3.3653521  15.1400889  52.4662240   3.2842666  13.9165184
  49.2561374  11.6114458  11.2557957  49.7199720  11.8902161  10.4662579
  48.9918173  10.7097903  11.0731048  46.1485455  11.1585940  14.1937720
  46.7186813  11.5873208  13.5555205  46.7393567  10.8768524  14.8921906
  48.1930260   7.7337610   8.0647522  48.8954304   8.1858654   8.5321448
  47.8610889   7.0921429   8.6927415  46.6410622   6.3249367  22.4398731
  46.0109283   7.0065648  22.6734128  46.5346710   6.2132449  21.4951870
  41.9355594   5.9921163  13.3664656  41.1454648   6.2478692  12.8904766
  42.4266842   6.8069501  13.4716696  55.9519404  13.3326402  16.1169936
  56.7736848  12.9306590  15.8352618  55.9481807  13.2294636  17.0686052
  43.8870340   6.3565742  10.3248132  43.0901503   6.4684437  10.8431628
  43.6595932   6.6952395   9.4589023  49.7176007  12.8810446  18.2730647
  49.7820440  13.3430853  19.1088819  49.0086931  12.2507810  18.4012957
  40.2193297   6.2451654  15.7979646  40.4701336   7.1298663  16.0637222
  40.7552846   6.0656255  15.0254738  49.4324025  14.5478553   8.1409627
  49.2969700  15.3930089   8.5694475  49.9733838  14.7497831   7.3775561
  42.8853422  12.0653991   8.7137552  43.3977943  12.8597241   8.8643117
  43.5376135  11.3680282   8.6471154  44.6948307  15.1819747  10.7960306
  44.8714936  16.1037712  10.6081289  45.4905141  14.8678167  11.2254685
  43.9800664   7.2284379  20.6722469  43.8654179   6.3269636  20.9729568
  43.1245181   7.4748076  20.3207285  51.0592501  15.1702120  22.2709969
  50.6156356  14.3838498  21.9530874  51.7209715  15.3581270  21.6053860
  45.8179623  16.6997921  16.7970648  46.3687048  16.5714984  16.0247642
  44.9791099  16.9992810  16.4465541  53.1573740  15.4504919  20.2991371
  53.1392215  16.2713801  19.8071640  54.0793660  15.3258995  20.5241512
  49.6146794  12.9649049  21.1414879  50.1475131  12.2037337  20.9114187
  49.0860875  12.6722701  21.8839033  40.8502339  10.3942645   9.4897123
  41.6877561  10.8039654   9.2730831  41.0280607   9.4542088   9.4597317
  52.7466771   8.0617726   5.1780956  52.2313395   8.8322331   5.4169343
  52.4744080   7.3882862   5.8014017  50.3313882   2.9067427  10.2366194
  49.4755479   2.5174277  10.0571833  50.7440834   2.9859388   9.3765980
  52.5353075   5.9344818   7.0040737  52.2303210   6.2490967   7.8550880
  53.4883517   6.0126238   7.0468070  50.9799506  12.0935041   8.6533691
  50.4520868  11.3587801   8.3406928  50.4787009  12.8709718   8.4073659
  55.9592352  10.2884062  13.7700737  55.3016027  10.9783323  13.8580866
  56.7632752  10.6780494  14.1134724  54.7697811   8.6428435  11.8204679
  55.2829693   9.2758426  12.3226389  55.4199035   8.0429630  11.4548039
  52.0320185  18.6212759   4.5765350  51.3581884  18.9244456   5.1850308
  52.4186007  19.4241839   4.2270807  51.2478642   6.1177890  14.0663020
  50.3301203   6.3392837  13.9084708  51.6638786   6.1924201  13.2074727
  52.0313690   7.5169306   9.1965700  52.7785509   8.0290703   8.8872822
  52.3005279   7.1953359  10.0570093  50.3040340  10.0127847   6.1792654
  49.3951559   9.7286879   6.2765124  50.3335424  10.4326925   5.3195961
  55.5359607  13.6234436   9.9483822  55.0821935  12.7825346  10.0049012
  54.9053574  14.2595834  10.2858602  54.4792527   4.5526422  11.1784489
  53.7415284   4.0403808  11.5094732  54.7319301   4.1126804  10.3667766
  53.9792547  15.4610933  10.8833640  54.2715521  16.0215990  10.1646005
  54.4891167  15.7539494  11.6386799  48.8525234   7.6256467  12.2802450
  48.9073844   6.6730304  12.2044926  48.0416436   7.7815906  12.7643748
  46.7917594   6.2433527  10.0392828  45.9785460   6.5427697  10.4458021
  47.2876588   5.8489216  10.7567311  48.9426172  16.2391284  11.9727093
  48.9002351  16.4652130  11.0435625  49.8588871  16.0054658  12.1212894
  52.3891806   6.7075351  18.8707722  52.7441193   6.9346825  19.7302188
  53.0363937   7.0393728  18.2484978  58.1189543   9.8293787   9.5757051
  57.9807441  10.0195383   8.6478241  57.7625761  10.5913170  10.0325102
  46.2831669   3.8151882  15.6554063  46.9231048   3.6740642  14.9577027
  45.4509199   3.5286396  15.2792665  58.1458922  11.8970314  14.5868323
  58.5795429  11.8045603  15.4351377  58.8590503  11.8727815  13.9488339
  47.0591973  13.1154313  11.7689056  47.8532571  12.6204633  11.5671631
  46.3483665  12.5872176  11.4056761  51.8786817  15.4972408  16.1201423
  51.9323839  16.0663345  16.8879139  51.0101598  15.6674293  15.7555461
  44.7585211   5.1989965  17.6025875  45.4308264   4.9907327  16.9538524
  43.9314997   5.0012051  17.1631107  59.0074472  11.9394015  17.1201208
  59.2010362  12.8439825  17.3660483  58.9075090  11.4801434  17.9539793
  54.0689580  12.0900758  22.6942089  53.9175087  11.8611309  21.7772173
  54.0594260  13.0471359  22.7073434  50.8374917   9.6632670  17.6788355
  51.7666977   9.8143830  17.5057323  50.4165947   9.7516691  16.8237002
  49.6363249  13.6883335  15.4486893  49.4974334  13.3202119  16.3212831
  48.8477845  14.2030974  15.2770851  50.2311401  18.7892431   6.7912429
  50.4063156  18.3180475   7.6058052  49.5444189  19.4158198   7.0193690
  51.1868464  13.0664938  12.8375731  50.8518296  13.0265708  13.7333381
  50.6872409  12.4009653  12.3646141  45.1612708   8.4732568  18.3628312
  45.0232506   7.7412806  18.9639851  46.0717631   8.3841468  18.0812500
  47.7895008   8.1852527  17.8511991  48.4994627   7.5445719  17.8098610
  47.7464317   8.4365422  18.7738172  55.7781787  15.1219880  20.7718571
  55.7194333  14.4379100  20.1049154  56.1801305  15.8638870  20.3199197
  46.5023942   5.1717745  19.6707631  45.9661299   4.7208483  20.3229227
  45.9140651   5.3063654  18.9278095  44.7972486  21.9381794  13.5652290
  45.0369084  22.5700318  14.2431308  43.9541682  21.5869834  13.8517649
  55.7799194  13.0859464  19.0032550  54.8925973  12.7485386  19.1258949
  56.3497745  12.3542495  19.2401316  37.4328341   9.4183556  12.3275602
  38.1199381   9.1045286  11.7396617  37.2776470  10.3224921  12.0542853
  42.2363064   4.3073752  16.7560625  42.1521252   3.6999422  16.0211035
  41.4145770   4.7982771  16.7570122  49.3100348  17.7460917  15.9693794
  49.2370519  18.5515888  16.4813098  48.8677741  17.9452882  15.1441815
  49.0990127  16.9832687   9.4796615  48.3157649  17.5254367   9.5734840
  49.7982873  17.5006666   9.8790856  60.2616535   8.4967682  13.7649112
  60.2506411   9.3792397  13.3943045  59.3933914   8.1439232  13.5703649
  51.7699031  17.6447751  18.1251952  52.4827003  18.2795215  18.0527854
  51.2789060  17.7411617  17.3091954  53.4916558  11.5499003   9.6969244
  52.5572837  11.6700466   9.5273948  53.6693227  10.6471470   9.4329254
  48.9921746   4.9344699  11.8502505  48.6219534   4.3815739  12.5383411
  49.4880839   4.3302832  11.2977505  56.8789110   7.3916323  10.2319278
  57.3449562   8.2244314  10.1579581  57.3296610   6.9261304  10.9364537
  46.8210945  15.3942194  18.9457523  47.5220404  16.0278677  19.0986917
  46.3506060  15.7356926  18.1853162  54.9465341  13.7360144   7.2305430
  55.2225185  13.6216738   8.1399304  54.0769839  13.3377629   7.1917603
  54.6212231   7.9486801  16.7710073  53.9683681   8.1962709  16.1162526
  54.9992611   7.1350940  16.4372551  51.5819405  17.9846495  10.8738244
  51.7641799  17.1668151  11.3365996  52.4052391  18.2014187  10.4363134
  51.9161570  16.9114680   8.1353292  52.4449337  16.4007134   7.5223454
  52.1789790  16.5957210   8.9998825  50.6699804   8.6906613  23.2576110
  49.9940441   8.5900742  23.9278486  51.4927438   8.5345826  23.7212108
  42.4178663  14.9278549  15.8788626  43.0032100  14.1822237  16.0116530
  42.2203501  15.2382506  16.7625290  45.2717318  17.9629796  10.8951068
  44.6027693  18.4475924  10.4115108  45.1330188  18.2099017  11.8094447
  37.0096318   7.4984149  14.5993069  37.0480417   6.9647740  15.3930187
  36.5036610   6.9719355  13.9804046  49.4122587  19.9973540  17.4933726
  49.9640895  20.1605161  18.2582812  49.7528780  20.5877978  16.8213751
  44.3887080   2.3448690  18.0955611  44.4528406   3.2063521  17.6833009
  44.3254200   1.7322691  17.3627970  43.8639352   4.4171822  21.7428645
  44.4911391   4.0348900  22.3566170  43.0067271   4.1986024  22.1084338
  54.2633461  14.8234797  23.3482381  54.8073365  15.4364756  22.8537336
  53.6820306  15.3814376  23.8649394  52.5490974  17.9455515  14.4797409
  52.4242113  17.1445255  13.9708354  53.2070065  18.4401709  13.9911379
  44.1699142   4.3004248  13.6574549  43.4485728   4.9140216  13.5182022
  44.9592398   4.8362013  13.5791195  54.6125882  15.7464536  16.1076959
  53.6656218  15.6269887  16.0355285  54.9608655  14.8587034  16.1903220
  46.9725456   1.6358674  19.9315201  47.4959858   1.8820971  20.6941510
  46.7537789   2.4678709  19.5118338  51.6172316  15.5417252  12.3081311
  51.4697278  14.6133959  12.4888881  52.4425809  15.5637343  11.8238386
  55.2206437  16.3645811  13.3946184  56.1452985  16.1588672  13.2570635
  55.0521741  16.1162212  14.3035525  48.1778001   2.5772370  17.6164871
  47.8374821   1.7780183  18.0185551  47.4717007   2.8774080  17.0441704
  46.3533051   6.3540803  13.8784173  46.2077632   6.6681106  14.7708454
  45.8758255   6.9725703  13.3255071  48.2129434   3.3443351  13.9265062
  48.1991003   2.4484444  13.5897360  48.9301862   3.3514014  14.5603348
  50.0655565   3.7780691  15.9718190  49.8073343   4.6997762  15.9702520
  49.5340605   3.3811125  16.6618654  55.0101754  16.8831478   8.7508275
  55.1838631  16.3177900   7.9982128  55.5030645  17.6832373   8.5687765
  40.8278714   8.8946147  16.8171834  40.2832182   9.6705955  16.9492108
  41.7058063   9.2416952  16.6590955  55.9976926  16.1998242   5.8505173
  56.6927831  16.8204935   6.0692488  56.3400076  15.3493594   6.1257551
  41.6144735   8.0216043  19.7101991  40.8726471   8.1698679  20.2966621
  41.2937480   8.2824309  18.8468740  57.8968349  13.6497948   7.3792504
  58.4219673  13.9885221   6.6541824  57.8090702  12.7144963   7.1955639
  49.5588398  17.5632022  19.5082381  49.8675524  17.3181168  20.3805080
  50.3563880  17.7678660  19.0201251  49.5809010  19.7169931  11.7387757
  49.1414000  19.2246310  12.4320614  50.3317127  19.1742899  11.4979833
  42.0601349  15.9081472  11.7412385  42.8859369  15.6085244  11.3611029
  41.7095401  15.1389094  12.1902174  47.0282882  15.2607940  13.8110059
  46.4062891  14.5978645  13.5112287  47.6987749  15.2869072  13.1283707
  40.2609954  13.8267799  12.7001319  39.4241862  13.3989973  12.5185320
  40.2333600  14.0200242  13.6372110  47.1007410   3.7389728  23.4042565
  47.1495565   4.6151851  23.0220335  47.6429924   3.1967121  22.8314208
  57.5862255  14.2830852  22.6843702  56.7957799  14.2654990  22.1448202
  57.3495610  14.8219145  23.4392739  57.7060130  11.1323318  19.9976431
  57.7558135  10.9673325  20.9391953  57.5974054  10.2650577  19.6074311
  46.5896389  13.8111864   7.2868520  46.7384509  14.4947328   6.6335192
  47.3962833  13.7916954   7.8017975  54.9963893   7.1154246  21.3135737
  55.8973756   6.9760711  21.0219735  55.0711867   7.2808701  22.2533915
  49.3306698   4.4921101  20.1588924  48.4610008   4.7854667  19.8871512
  49.5666179   5.0761546  20.8796187  59.2078327  13.5520259  20.2418452
  58.9163136  13.9150240  21.0781913  58.5950459  12.8387268  20.0631784
  60.4074010  11.1173139  12.7621022  61.2420901  11.5562943  12.9258583
  60.5433138  10.6411792  11.9429268  57.4565515   8.6752874  18.7098510
  57.9319637   8.8680520  17.9017362  56.5331081   8.7312060  18.4641894
  44.3449022   9.8377041   8.2929588  44.0995064   8.9339371   8.4909799
  44.5144937   9.8394192   7.3509066  50.0891795  16.3059994   4.7580267
  49.5165762  16.9250181   4.3050739  50.6624588  16.8559356   5.2920189
  56.1567184   5.5518634  16.9426816  57.1084607   5.6516732  16.9639040
  55.9870635   4.7596903  17.4524900  53.3089054  16.5897144   5.8888849
  54.2419728  16.5242706   6.0921725  53.2212267  17.4253411   5.4303382
  58.6355262   8.7724754  16.0569115  58.6031582   7.8340755  16.2428799
  59.2455886   8.8508791  15.3234940  64.4531812   9.8340761  15.1975152
  65.1835201   9.5726049  15.7582856  63.8438758   9.0969483  15.2377220
  62.5347109   7.9748623  15.7949603  61.8080273   7.8404588  15.1866095
  62.1194396   8.2825452  16.6006321  50.3577286  11.6938553  23.5596976
  51.2780295  11.8717152  23.7537023  50.3226869  10.7494598  23.4076676
  39.5759451   6.8877147  12.4850251  39.2562235   6.0342455  12.1924625
  39.0292879   7.1025725  13.2408218  43.3539358   9.6039588  16.2019758
  43.5725368  10.5356695  16.2207791  43.7665132   9.2447562  16.9874561
  48.2267224   5.1772793  25.5922507  48.1263950   6.1267150  25.5234598
  48.0088766   4.8491032  24.7198577  39.4447711  10.5080058  14.4543373
  38.7511182  10.0934011  13.9413327  40.1920702  10.5500595  13.8576792
  48.0898494   8.6069932  24.4087568  47.6065575   9.4070292  24.6151457
  48.1759433   8.6177877  23.4555012  41.3584453  10.4398312  12.3309388
  41.3355141  10.5385999  11.3791271  41.6685090  11.2863463  12.6526554
  44.0171831  12.4974467  16.4456002  44.9715085  12.4658409  16.3785934
  43.8184355  12.0365091  17.2606228  44.6071213  11.0675583  19.0126800
  45.4264102  11.5619662  19.0361637  44.8808021  10.1507551  18.9844367
  42.3722060  18.0394086  13.4626200  42.2376528  17.2794487  12.8964198
  41.9554122  18.7634986  12.9954989  54.3378833   8.9740871   8.5905045
  54.2814035   9.4309423   7.7512678  54.8907176   8.2131556   8.4127888
  45.5291186  18.9363403  13.6744643  45.4123570  19.8808836  13.5723333
  44.7083632  18.6336965  14.0630442  39.8606127   5.4013717  19.7118997
  40.5064991   4.8912671  20.2006222  39.6523279   6.1382398  20.2862422
  52.3859520  12.4694564  25.2111137  53.2550679  12.6435217  24.8497772
  51.9066271  13.2888981  25.0886867  46.5545700  19.5891665  16.8900571
  47.4572947  19.6215276  17.2067066  46.3283070  18.6592116  16.9046907
  48.3099302  18.3422652  13.5510650  47.3594933  18.3424513  13.4375022
  48.6131788  17.5955386  13.0346684  44.2003618   2.5481334  23.8094011
  45.0635080   2.1918139  24.0197336  43.6269029   2.2095229  24.4969415
  64.0451995  24.1783190  14.6156412  64.6830405  24.0589938  13.9119752
  63.9272838  25.1264034  14.6744364  60.8541702  24.1310618  14.5517937
  60.5160213  24.0151683  13.6638472  61.7231470  23.7301783  14.5318943
  56.7128517  25.9846095  10.5414828  56.1493382  25.8936032   9.7731115
  56.5980912  25.1645999  11.0217320  61.3361485  25.2845470  20.5104142
  61.3250125  24.8898268  19.6384646  61.4982124  24.5511543  21.1037914
  54.2592949  27.4797286  13.3799048  55.0514241  27.1388111  12.9645347
  54.4989599  27.5892261  14.3001201  62.2928076  29.6517062   5.8529293
  61.6416056  30.2371143   5.4663306  63.0872439  30.1823257   5.9124330
  56.2183703  26.7406200   6.2516427  56.9914579  26.1935187   6.1129303
  56.5709102  27.6050449   6.4630888  58.0568746  28.0682582  19.4583326
  57.7658612  28.9728213  19.3429992  58.6925730  28.1099110  20.1727396
  58.9824953  25.4459430  16.0484686  59.5788525  25.2215453  15.3341649
  59.0399924  24.7044176  16.6510134  58.5549981  22.8998866   3.8834877
  58.8075502  22.3780387   3.1218340  57.6174540  22.7365011   3.9861560
  63.5993264  21.9034644  11.6909620  64.3856353  21.4854067  11.3400037
  63.8631968  22.8080736  11.8591268  63.7703341  27.3407494   6.3898277
  63.1349174  27.4142121   7.1019181  63.4400748  27.9301093   5.7117356
  69.0001691  21.8409877  12.5942599  69.7326863  21.2709094  12.8280428
  68.2441047  21.4531478  13.0349104  58.2746270  24.8026972   6.0859252
  58.1582528  24.1271875   6.7540336  58.3848530  24.3159346   5.2691405
  60.6177811  24.2637119   9.7905941  60.2536018  23.7367740  10.5018862
  61.4744927  23.8735588   9.6172426  66.5227111  15.5531451  17.0537207
  66.1910436  16.4226862  16.8298422  65.9272725  15.2367735  17.7331238
  63.0158631  27.7543997  16.4533120  62.7159354  28.6569036  16.3448927
  62.6709690  27.4876181  17.3054273  56.4671112  24.2057794  12.4869824
  55.5421609  24.0734008  12.6947516  56.7155526  24.9852013  12.9839767
  66.4155775  20.2726538  14.1330557  65.5072652  20.2041946  13.8389318
  66.3643370  20.7498483  14.9612383  60.2372519  21.7484676   5.7713956
  60.1172144  22.1941727   6.6099437  59.5425107  22.0969994   5.2127494
  53.8279923  23.8491068  13.3213613  53.9572305  24.1025547  14.2353025
  53.1477375  24.4418776  13.0018268  57.9979411  34.5188318   9.4204088
  57.9203440  35.4696143   9.4992568  57.3941054  34.1734190  10.0779014
  60.4896640  21.6916183  22.0765454  59.7129975  22.2510103  22.0668319
  61.1287204  22.1772966  22.5980325  68.2817421  18.4742976  15.9108431
  67.6391801  18.7675509  15.2648226  67.7772350  18.3595896  16.7161628
  58.7443013  24.5001637  21.6383421  59.4857697  25.0386681  21.3618245
  58.0379998  25.1267925  21.7954973  64.2198352  26.6430777  20.2355583
  64.6281708  26.2013188  19.4910215  63.4975614  26.0683405  20.4889776
  60.5729422  21.5803384  17.6089140  61.4190618  22.0042797  17.7523789
  60.5128060  20.9237008  18.3027703  64.5427167  27.2031968  13.9907872
  63.9136029  27.3677682  13.2883940  64.1552829  27.6173577  14.7618836
  68.4216399  28.1386405  11.3452236  67.7367437  28.5185307  10.7949269
  68.5060248  28.7481732  12.0784183  63.7228868  19.2407752  19.2670314
  63.4789800  19.9949813  18.7304589  63.9988798  19.6193100  20.1017561
  65.6767331  25.7846365  17.9447579  65.8884226  26.4278124  17.2681960
  65.6297079  24.9508681  17.4769509  63.2793559  18.3964185  14.8484151
  62.4178039  18.6945439  15.1400889  63.3055994  18.6134584  13.9165184
  60.0955129  26.9406376  11.2557957  60.5593474  27.2194079  10.4662579
  59.8311927  26.0389820  11.0731048  56.9879210  26.4877857  14.1937720
  57.5580567  26.9165126  13.5555205  57.5787322  26.2060442  14.8921906
  59.0324015  23.0629528   8.0647522  59.7348058  23.5150572   8.5321448
  58.7004643  22.4213347   8.6927415  57.4804376  21.6541285  22.4398731
  56.8503037  22.3357566  22.6734128  57.3740464  21.5424366  21.4951870
  52.7749349  21.3213081  13.3664656  51.9848403  21.5770609  12.8904766
  53.2660596  22.1361419  13.4716696  66.7913158  28.6618320  16.1169936
  67.6130602  28.2598507  15.8352618  66.7875561  28.5586554  17.0686052
  54.7264094  21.6857660  10.3248132  53.9295258  21.7976354  10.8431628
  54.4989687  22.0244312   9.4589023  60.5569762  28.2102363  18.2730647
  60.6214194  28.6722770  19.1088819  59.8480686  27.5799728  18.4012957
  51.0587052  21.5743571  15.7979646  51.3095090  22.4590581  16.0637222
  51.5946600  21.3948173  15.0254738  60.2717780  29.8770471   8.1409627
  60.1363454  30.7222006   8.5694475  60.8127592  30.0789748   7.3775561
  56.7585119  15.9562051  24.8023983  56.3652065  15.4028249  25.4771627
  57.5751260  16.2672629  25.1930500  53.7247177  27.3945909   8.7137552
  54.2371698  28.1889159   8.8643117  54.3769890  26.6972199   8.6471154
  55.5342062  30.5111665  10.7960306  55.7108690  31.4329630  10.6081289
  56.3298895  30.1970084  11.2254685  59.6753080  17.3719930  22.3944239
  60.4162794  17.9727083  22.3148702  59.9071003  16.6297567  21.8362282
  54.8194418  22.5576297  20.6722469  54.7047933  21.6561554  20.9729568
  53.9638936  22.8039994  20.3207285  61.8986256  30.4994037  22.2709969
  61.4550110  29.7130416  21.9530874  62.5603470  30.6873188  21.6053860
  56.6573377  32.0289839  16.7970648  57.2080802  31.9006902  16.0247642
  55.8184853  32.3284728  16.4465541  63.9967494  30.7796837  20.2991371
  63.9785969  31.6005718  19.8071640  64.9187414  30.6550912  20.5241512
  60.4540548  28.2940967  21.1414879  60.9868885  27.5329255  20.9114187
  59.9254629  28.0014618  21.8839033  63.6210243  13.4001033  16.6708521
  63.2774513  14.2902674  16.5947631  63.9889206  13.2102690  15.8078106
  51.6896094  25.7234563   9.4897123  52.5271316  26.1331571   9.2730831
  51.8674361  24.7834005   9.4597317  63.5860526  23.3909644   5.1780956
  63.0707149  24.1614248   5.4169343  63.3137834  22.7174780   5.8014017
  61.1707637  18.2359344  10.2366194  60.3149233  17.8466195  10.0571833
  61.5834589  18.3151305   9.3765980  62.7006784  15.7705688  14.6357754
  62.1971579  15.7335823  13.8225559  62.9937390  16.6798430  14.6954411
  58.9449669  15.8544417  13.6423936  59.8102666  15.6587226  13.2829825
  59.0127178  15.6254769  14.5693292  63.3746829  21.2636736   7.0040737
  63.0696965  21.5782885   7.8550880  64.3277271  21.3418156   7.0468070
  61.8193261  27.4226959   8.6533691  61.2914622  26.6879719   8.3406928
  61.3180764  28.2001635   8.4073659  66.7986107  25.6175980  13.7700737
  66.1409781  26.3075241  13.8580866  67.6026506  26.0072412  14.1134724
  56.5511989  18.0846625  11.0140303  57.1255740  17.8621807  10.2813495
  57.1382971  18.1535320  11.7668904  65.6091566  23.9720352  11.8204679
  66.1223447  24.6050344  12.3226389  66.2592790  23.3721548  11.4548039
  56.8781576  20.1151086   5.0336188  56.0418888  20.4525773   5.3545463
  56.7386345  19.9800066   4.0963325  58.8534656  14.9587874   9.7415372
  58.1999069  14.6436891   9.1171987  58.8115130  14.3363615  10.4675195
  62.8713940  33.9504677   4.5765350  62.1975639  34.2536373   5.1850308
  63.2579762  34.7533757   4.2270807  62.0872397  21.4469808  14.0663020
  61.1694958  21.6684755  13.9084708  62.5032540  21.5216118  13.2074727
  62.8707444  22.8461224   9.1965700  63.6179263  23.3582621   8.8872822
  63.1399034  22.5245276  10.0570093  61.1434095  25.3419764   6.1792654
  60.2345314  25.0578797   6.2765124  61.1729178  25.7618843   5.3195961
  66.3753362  28.9526354   9.9483822  65.9215689  28.1117264  10.0049012
  65.7447329  29.5887752  10.2858602  65.3186281  19.8818340  11.1784489
  64.5809038  19.3695726  11.5094732  65.5713055  19.4418721  10.3667766
  64.8186301  30.7902850  10.8833640  65.1109276  31.3507908  10.1646005
  65.3284922  31.0831411  11.6386799  51.7122265  23.0625278  10.1607856
  51.5146665  22.4694639   9.4358923  51.1568929  22.7577489  10.8783795
  59.6918989  22.9548385  12.2802450  59.7467598  22.0022221  12.2044926
  58.8810191  23.1107824  12.7643748  60.8410182  26.8828508   3.5180733
  60.4029612  26.1664367   3.0586370  61.5820623  27.1104623   2.9565824
  57.6311348  21.5725445  10.0392828  56.8179214  21.8719615  10.4458021
  58.1270343  21.1781133  10.7567311  59.7819926  31.5683202  11.9727093
  59.7396105  31.7944048  11.0435625  60.6982625  31.3346576  12.1212894
  63.2285560  22.0367269  18.8707722  63.5834948  22.2638742  19.7302188
  63.8757691  22.3685646  18.2484978  68.9583297  25.1585705   9.5757051
  68.8201196  25.3487301   8.6478241  68.6019516  25.9205088  10.0325102
  57.1225423  19.1443800  15.6554063  57.7624803  19.0032559  14.9577027
  56.2902954  18.8578313  15.2792665  68.9852677  27.2262232  14.5868323
  69.4189183  27.1337521  15.4351377  69.6984257  27.2019732  13.9488339
  57.8985727  28.4446231  11.7689056  58.6926326  27.9496551  11.5671631
  57.1877420  27.9164094  11.4056761  62.7180572  30.8264326  16.1201423
  62.7717594  31.3955262  16.8879139  61.8495353  30.9966211  15.7555461
  54.2068491  22.5889312   7.8448808  53.2766079  22.5273768   8.0618771
  54.3025963  22.0665265   7.0485450  54.1254040  19.1144125  10.4327050
  54.3860857  20.0289458  10.3236211  54.9471212  18.6468568  10.5823663
  55.5978965  20.5281882  17.6025875  56.2702018  20.3199244  16.9538524
  54.7708752  20.3303968  17.1631107  69.8468226  27.2685933  17.1201208
  70.0404116  28.1731743  17.3660483  69.7468844  26.8093352  17.9539793
  61.5004537  17.1543823  19.6191536  60.8532452  17.8533773  19.5256012
  62.2705552  17.5879967  19.9867784  64.9083335  27.4192675  22.6942089
  64.7568841  27.1903227  21.7772173  64.8988014  28.3763277  22.7073434
  61.6768671  24.9924588  17.6788355  62.6060731  25.1435748  17.5057323
  61.2559701  25.0808609  16.8237002  60.4757003  29.0175253  15.4486893
  60.3368089  28.6494037  16.3212831  59.6871599  29.5322892  15.2770851
  61.0705155  34.1184349   6.7912429  61.2456911  33.6472392   7.6058052
  60.3837943  34.7450115   7.0193690  62.0262218  28.3956855  12.8375731
  61.6912051  28.3557625  13.7333381  61.5266164  27.7301571  12.3646141
  56.0006462  23.8024485  18.3628312  55.8626260  23.0704724  18.9639851
  56.9111386  23.7133385  18.0812500  58.6288763  23.5144445  17.8511991
  59.3388381  22.8737637  17.8098610  58.5858071  23.7657339  18.7738172
  66.6175542  30.4511798  20.7718571  66.5588088  29.7671018  20.1049154
  67.0195060  31.1930788  20.3199197  57.3417697  20.5009662  19.6707631
  56.8055054  20.0500401  20.3229227  56.7534405  20.6355571  18.9278095
  55.6366240  37.2673712  13.5652290  55.8762839  37.8992236  14.2431308
  54.7935437  36.9161752  13.8517649  66.6192949  28.4151382  19.0032550
  65.7319728  28.0777304  19.1258949  67.1891500  27.6834413  19.2401316
  48.2722096  24.7475474  12.3275602  48.9593136  24.4337204  11.7396617
  48.1170225  25.6516838  12.0542853  53.0756818  19.6365670  16.7560625
  52.9915007  19.0291340  16.0211035  52.2539525  20.1274688  16.7570122
  60.1494102  33.0752834  15.9693794  60.0764274  33.8807806  16.4813098
  59.7071495  33.2744800  15.1441815  59.9383882  32.3124604   9.4796615
  59.1551404  32.8546284   9.5734840  60.6376627  32.8298584   9.8790856
  63.2480532  18.1219234  12.1230820  63.7449232  17.3689196  11.8031891
  62.4767513  18.1583550  11.5574030  71.1010289  23.8259599  13.7649112
  71.0900166  24.7084315  13.3943045  70.2327669  23.4731150  13.5703649
  62.6092786  32.9739668  18.1251952  63.3220758  33.6087133  18.0527854
  62.1182814  33.0703534  17.3091954  64.3310313  26.8790921   9.6969244
  63.3966591  26.9992383   9.5273948  64.5086981  25.9763388   9.4329254
  59.8315501  20.2636617  11.8502505  59.4613288  19.7107657  12.5383411
  60.3274593  19.6594750  11.2977505  67.7182864  22.7208240  10.2319278
  68.1843316  23.5536232  10.1579581  68.1690365  22.2553222  10.9364537
  57.6604699  30.7234112  18.9457523  58.3614159  31.3570595  19.0986917
  57.1899814  31.0648843  18.1853162  65.7859095  29.0652061   7.2305430
  66.0618939  28.9508656   8.1399304  64.9163594  28.6669546   7.1917603
  65.6899527  15.0888827  14.2710179  64.7762607  15.3193054  14.4392386
  66.1192628  15.1727271  15.1224212  65.4605985  23.2778719  16.7710073
  64.8077436  23.5254627  16.1162526  65.8386365  22.4642857  16.4372551
  62.4213159  33.3138412  10.8738244  62.6035554  32.4960068  11.3365996
  63.2446145  33.5306105  10.4363134  62.7555325  32.2406597   8.1353292
  63.2843091  31.7299052   7.5223454  63.0183544  31.9249128   8.9998825
  61.5093558  24.0198530  23.2576110  60.8334195  23.9192660  23.9278486
  62.3321192  23.8637744  23.7212108  53.2572417  30.2570467  15.8788626
  53.8425854  29.5114155  16.0116530  53.0597256  30.5674423  16.7625290
  56.1111073  33.2921714  10.8951068  55.4421448  33.7767842  10.4115108
  55.9723942  33.5390935  11.8094447  47.8490072  22.8276067  14.5993069
  47.8874172  22.2939658  15.3930187  47.3430365  22.3011272  13.9804046
  60.2516341  35.3265458  17.4933726  60.8034649  35.4897079  18.2582812
  60.5922535  35.9169895  16.8213751  55.2280834  17.6740607  18.0955611
  55.2922161  18.5355438  17.6833009  55.1647955  17.0614609  17.3627970
  54.7033107  19.7463740  21.7428645  55.3305146  19.3640817  22.3566170
  53.8461026  19.5277942  22.1084338  65.1027216  30.1526715  23.3482381
  65.6467119  30.7656673  22.8537336  64.5214060  30.7106294  23.8649394
  51.4798650  21.5540169   7.6747000  51.7752091  20.6450848   7.6214054
  50.5786685  21.5327909   7.3528003  63.3884728  33.2747433  14.4797409
  63.2635868  32.4737173  13.9708354  64.0463820  33.7693627  13.9911379
  55.0092897  19.6296166  13.6574549  54.2879482  20.2432133  13.5182022
  55.7986152  20.1653930  13.5791195  65.4519637  31.0756453  16.1076959
  64.5049972  30.9561804  16.0355285  65.8002410  30.1878951  16.1903220
  57.8119210  16.9650592  19.9315201  58.3353612  17.2112889  20.6941510
  57.5931543  17.7970627  19.5118338  53.2086491  19.2354267   7.7986325
  52.8799197  18.3551646   7.6161431  53.5625862  19.1801935   8.6862715
  62.4566070  30.8709169  12.3081311  62.3091033  29.9425877  12.4888881
  63.2819564  30.8929260  11.8238386  56.3228314  19.5227237   8.1661803
  56.6624387  20.0513158   7.4440411  56.7700435  19.8607643   8.9420370
  66.0600192  31.6937728  13.3946184  66.9846739  31.4880590  13.2570635
  65.8915495  31.4454129  14.3035525  59.0171755  17.9064287  17.6164871
  58.6768576  17.1072100  18.0185551  58.3110762  18.2065998  17.0441704
  59.6688227  14.9913600  16.0692194  60.4914296  14.5174078  15.9471084
  59.9126291  15.7704083  16.5690880  58.3096462  18.0201858   6.3655096
  59.0304824  18.3983111   5.8618813  57.6861766  18.7390735   6.4690074
  57.1926806  21.6832720  13.8784173  57.0471387  21.9973023  14.7708454
  56.7152009  22.3017621  13.3255071  59.0523189  18.6735268  13.9265062
  59.0384757  17.7776362  13.5897360  59.7695617  18.6805932  14.5603348
  60.9049319  19.1072609  15.9718190  60.6467097  20.0289679  15.9702520
  60.3734360  18.7103043  16.6618654  65.8495508  32.2123396   8.7508275
  66.0232386  31.6469818   7.9982128  66.3424399  33.0124291   8.5687765
  51.6672468  24.2238065  16.8171834  51.1225936  24.9997873  16.9492108
  52.5451818  24.5708869  16.6590955  58.4560085  17.5549649   9.1952632
  58.5775996  16.6266295   9.3943520  58.1662127  17.5688335   8.2830948
  61.3251275  15.2404559  12.3319352  61.3472972  15.3043892  11.3771332
  61.7419334  14.4009068  12.5259858  66.8370681  31.5290160   5.8505173
  67.5321585  32.1496853   6.0692488  67.1793831  30.6785511   6.1257551
  52.4538490  23.3507961  19.7101991  51.7120226  23.4990596  20.2966621
  52.1331234  23.6116227  18.8468740  68.7362104  28.9789866   7.3792504
  69.2613428  29.3177138   6.6541824  68.6484456  28.0436881   7.1955639
  60.3982152  32.8923939  19.5082381  60.7069279  32.6473086  20.3805080
  61.1957635  33.0970578  19.0201251  60.4202765  35.0461849  11.7387757
  59.9807755  34.5538228  12.4320614  61.1710882  34.5034817  11.4979833
  52.8995104  31.2373390  11.7412385  53.7253123  30.9377162  11.3611029
  52.5489156  30.4681012  12.1902174  57.8676637  30.5899858  13.8110059
  57.2456646  29.9270563  13.5112287  58.5381504  30.6160990  13.1283707
  51.1003709  29.1559716  12.7001319  50.2635617  28.7281891  12.5185320
  51.0727354  29.3492160  13.6372110  57.9401164  19.0681646  23.4042565
  57.9889320  19.9443769  23.0220335  58.4823678  18.5259039  22.8314208
  68.4256010  29.6122769  22.6843702  67.6351554  29.5946908  22.1448202
  68.1889364  30.1511063  23.4392739  68.5453885  26.4615236  19.9976431
  68.5951890  26.2965243  20.9391953  68.4367808  25.5942495  19.6074311
  57.4290144  29.1403781   7.2868520  57.5778264  29.8239246   6.6335192
  58.2356587  29.1208871   7.8017975  65.8357647  22.4446164  21.3135737
  66.7367510  22.3052628  21.0219735  65.9105622  22.6100618  22.2533915
  60.1700453  19.8213018  20.1588924  59.3003762  20.1146584  19.8871512
  60.4059933  20.4053463  20.8796187  70.0472082  28.8812177  20.2418452
  69.7556890  29.2442158  21.0781913  69.4344213  28.1679185  20.0631784
  71.2467764  26.4465057  12.7621022  72.0814655  26.8854861  12.9258583
  71.3826893  25.9703710  11.9429268  68.2959270  24.0044792  18.7098510
  68.7713392  24.1972438  17.9017362  67.3724835  24.0603978  18.4641894
  55.1842777  25.1668959   8.2929588  54.9388819  24.2631289   8.4909799
  55.3538691  25.1686109   7.3509066  62.8739486  16.0392635  17.6754344
  63.3921430  16.7753662  17.3500833  62.5194619  16.3456629  18.5101103
  54.4538424  20.8997317   5.7915750  53.7607669  20.9741671   5.1355786
  54.2090176  20.1357660   6.3137267  63.1252081  12.4592918  13.1955241
  63.4053834  11.7916107  13.8215667  63.9102688  12.6522013  12.6829905
  60.9285549  31.6351912   4.7580267  60.3559516  32.2542099   4.3050739
  61.5018343  32.1851273   5.2920189  66.9960939  20.8810552  16.9426816
  67.9478362  20.9808650  16.9639040  66.8264389  20.0888820  17.4524900
  65.0175318  17.9666135  17.1286217  64.4225251  18.2471148  16.4332705
  64.7325015  18.4560036  17.9002958  64.1482809  31.9189062   5.8888849
  65.0813482  31.8534624   6.0921725  64.0606022  32.7545329   5.4303382
  69.4749017  24.1016672  16.0569115  69.4425337  23.1632672  16.2428799
  70.0849640  24.1800708  15.3234940  69.6243505  20.8927715  16.1027399
  69.1082554  20.1086172  15.9157328  70.5083454  20.5646432  16.2673918
  75.2925567  25.1632678  15.1975152  76.0228955  24.9017966  15.7582856
  74.6832512  24.4261400  15.2377220  73.3740864  23.3040541  15.7949603
  72.6474027  23.1696506  15.1866095  72.9588151  23.6117370  16.6006321
  61.1971040  27.0230471  23.5596976  62.1174050  27.2009070  23.7537023
  61.1620623  26.0786516  23.4076676  50.4153205  22.2169064  12.4850251
  50.0955990  21.3634372  12.1924625  49.8686633  22.4317642  13.2408218
  54.1933113  24.9331505  16.2019758  54.4119122  25.8648613  16.2207791
  54.6058887  24.5739480  16.9874561  61.1137331  15.4399591   8.1895446
  60.3038059  15.0946676   8.5650692  61.8021747  15.1307134   8.7783058
  59.0660978  20.5064711  25.5922507  58.9657705  21.4559068  25.5234598
  58.8482520  20.1782950  24.7198577  50.2841465  25.8371976  14.4543373
  49.5904937  25.4225929  13.9413327  51.0314456  25.8792512  13.8576792
  64.8710252  16.0283220  11.5219727  65.3710031  16.1399755  10.7134046
  65.5145860  15.7244273  12.1620536  58.9292248  23.9361850  24.4087568
  58.4459330  24.7362210  24.6151457  59.0153187  23.9469795  23.4555012
  52.1978208  25.7690230  12.3309388  52.1748896  25.8677917  11.3791271
  52.5078844  26.6155380  12.6526554  54.8565586  27.8266385  16.4456002
  55.8108839  27.7950327  16.3785934  54.6578109  27.3657008  17.2606228
  55.4464968  26.3967501  19.0126800  56.2657857  26.8911579  19.0361637
  55.7201775  25.4799469  18.9844367  68.5546100  18.8124774  12.0909094
  69.3306490  19.3021226  12.3633711  67.8294234  19.2382828  12.5480964
  53.2115814  33.3686004  13.4626200  53.0770282  32.6086405  12.8964198
  52.7947877  34.0926904  12.9954989  65.1772588  24.3032789   8.5905045
  65.1207789  24.7601340   7.7512678  65.7300930  23.5423473   8.4127888
  56.3684940  34.2655321  13.6744643  56.2517324  35.2100754  13.5723333
  55.5477387  33.9628883  14.0630442  50.6999882  20.7305635  19.7118997
  51.3458746  20.2204588  20.2006222  50.4917033  21.4674316  20.2862422
  63.2253274  27.7986482  25.2111137  64.0944434  27.9727134  24.8497772
  62.7460026  28.6180899  25.0886867  57.3939454  34.9183583  16.8900571
  58.2966701  34.9507193  17.2067066  57.1676824  33.9884034  16.9046907
  59.1493056  33.6714570  13.5510650  58.1988687  33.6716431  13.4375022
  59.4525543  32.9247304  13.0346684  55.0397373  17.8773252  23.8094011
  55.9028835  17.5210056  24.0197336  54.4662784  17.5387146  24.4969415
  74.8845750  39.5075108  14.6156412  75.5224160  39.3881855  13.9119752
  74.7666593  40.4555952  14.6744364  71.6935456  39.4602536  14.5517937
  71.3553968  39.3443601  13.6638472  72.5625224  39.0593701  14.5318943
  67.5522272  41.3138012  10.5414828  66.9887137  41.2227949   9.7731115
  67.4374667  40.4937917  11.0217320  72.1755239  40.6137388  20.5104142
  72.1643880  40.2190186  19.6384646  72.3375879  39.8803460  21.1037914
  65.0986704  42.8089204  13.3799048  65.8907996  42.4680029  12.9645347
  65.3383354  42.9184179  14.3001201  67.0577458  42.0698117   6.2516427
  67.8308334  41.5227104   6.1129303  67.4102857  42.9342367   6.4630888
  68.8962500  43.3974500  19.4583326  68.6052366  44.3020130  19.3429992
  69.5319485  43.4391027  20.1727396  69.8218707  40.7751348  16.0484686
  70.4182279  40.5507370  15.3341649  69.8793679  40.0336094  16.6510134
  74.4387018  37.2326562  11.6909620  75.2250108  36.8145985  11.3400037
  74.7025723  38.1372654  11.8591268  69.1140024  40.1318889   6.0859252
  68.9976282  39.4563793   6.7540336  69.2242284  39.6451263   5.2691405
  71.4571565  39.5929036   9.7905941  71.0929772  39.0659657  10.5018862
  72.3138681  39.2027506   9.6172426  77.3620866  30.8823369  17.0537207
  77.0304191  31.7518780  16.8298422  76.7666479  30.5659653  17.7331238
  73.8552385  43.0835915  16.4533120  73.5553108  43.9860954  16.3448927
  73.5103445  42.8168098  17.3054273  67.3064867  39.5349712  12.4869824
  66.3815363  39.4025926  12.6947516  67.5549280  40.3143931  12.9839767
  77.2549529  35.6018455  14.1330557  76.3466406  35.5333864  13.8389318
  77.2037125  36.0790400  14.9612383  71.0766273  37.0776594   5.7713956
  70.9565898  37.5233644   6.6099437  70.3818861  37.4261911   5.2127494
  64.6673678  39.1782985  13.3213613  64.7966059  39.4317464  14.2353025
  63.9871129  39.7710693  13.0018268  71.3290395  37.0208101  22.0765454
  70.5523729  37.5802021  22.0668319  71.9680958  37.5064884  22.5980325
  69.5836767  39.8293554  21.6383421  70.3251452  40.3678598  21.3618245
  68.8773753  40.4559843  21.7954973  75.0592107  41.9722695  20.2355583
  75.4675463  41.5305105  19.4910215  74.3369368  41.3975322  20.4889776
  71.4123177  36.9095301  17.6089140  72.2584372  37.3334715  17.7523789
  71.3521815  36.2528926  18.3027703  75.3820922  42.5323885  13.9907872
  74.7529784  42.6969599  13.2883940  74.9946584  42.9465495  14.7618836
  74.5622622  34.5699670  19.2670314  74.3183554  35.3241730  18.7304589
  74.8382553  34.9485017  20.1017561  76.5161085  41.1138282  17.9447579
  76.7277980  41.7570042  17.2681960  76.4690833  40.2800599  17.4769509
  74.1187314  33.7256103  14.8484151  73.2571793  34.0237356  15.1400889
  74.1449749  33.9426502  13.9165184  70.9348883  42.2698293  11.2557957
  71.3987229  42.5485996  10.4662579  70.6705682  41.3681738  11.0731048
  67.8272964  41.8169775  14.1937720  68.3974322  42.2457043  13.5555205
  68.4181076  41.5352360  14.8921906  69.8717769  38.3921446   8.0647522
  70.5741813  38.8442489   8.5321448  69.5398398  37.7505265   8.6927415
  68.3198131  36.9833202  22.4398731  67.6896792  37.6649483  22.6734128
  68.2134219  36.8716284  21.4951870  63.6143103  36.6504998  13.3664656
  62.8242157  36.9062527  12.8904766  64.1054351  37.4653336  13.4716696
  77.6306913  43.9910238  16.1169936  78.4524357  43.5890425  15.8352618
  77.6269316  43.8878472  17.0686052  65.5657849  37.0149578  10.3248132
  64.7689012  37.1268272  10.8431628  65.3383441  37.3536230   9.4589023
  71.3963516  43.5394281  18.2730647  71.4607949  44.0014688  19.1088819
  70.6874440  42.9091646  18.4012957  61.8980806  36.9035489  15.7979646
  62.1488845  37.7882499  16.0637222  62.4340355  36.7240090  15.0254738
  67.5978874  31.2853968  24.8023983  67.2045819  30.7320167  25.4771627
  68.4145014  31.5964547  25.1930500  64.5640931  42.7237826   8.7137552
  65.0765452  43.5181077   8.8643117  65.2163644  42.0264117   8.6471154
  66.3735816  45.8403583  10.7960306  66.5502445  46.7621547  10.6081289
  67.1692650  45.5262002  11.2254685  70.5146835  32.7011847  22.3944239
  71.2556548  33.3019000  22.3148702  70.7464758  31.9589485  21.8362282
  65.6588173  37.8868215  20.6722469  65.5441688  36.9853472  20.9729568
  64.8032690  38.1331911  20.3207285  72.7380010  45.8285955  22.2709969
  72.2943865  45.0422333  21.9530874  73.3997224  46.0165105  21.6053860
  67.4967132  47.3581756  16.7970648  68.0474557  47.2298820  16.0247642
  66.6578608  47.6576646  16.4465541  74.8361249  46.1088755  20.2991371
  74.8179724  46.9297636  19.8071640  75.7581169  45.9842830  20.5241512
  71.2934303  43.6232884  21.1414879  71.8262639  42.8621172  20.9114187
  70.7648384  43.3306536  21.8839033  74.4603998  28.7292950  16.6708521
  74.1168267  29.6194592  16.5947631  74.8282960  28.5394608  15.8078106
  62.5289848  41.0526481   9.4897123  63.3665070  41.4623489   9.2730831
  62.7068116  40.1125923   9.4597317  72.0101391  33.5651262  10.2366194
  71.1542988  33.1758113  10.0571833  72.4228343  33.6443223   9.3765980
  73.5400538  31.0997605  14.6357754  73.0365334  31.0627741  13.8225559
  73.8331145  32.0090348  14.6954411  69.7843424  31.1836335  13.6423936
  70.6496421  30.9879144  13.2829825  69.8520933  30.9546687  14.5693292
  74.2140584  36.5928653   7.0040737  73.9090719  36.9074803   7.8550880
  75.1671026  36.6710073   7.0468070  72.6587015  42.7518877   8.6533691
  72.1308377  42.0171636   8.3406928  72.1574518  43.5293553   8.4073659
  77.6379861  40.9467897  13.7700737  76.9803536  41.6367159  13.8580866
  78.4420261  41.3364329  14.1134724  67.3905743  33.4138543  11.0140303
  67.9649495  33.1913725  10.2813495  67.9776725  33.4827238  11.7668904
  76.4485320  39.3012270  11.8204679  76.9617202  39.9342262  12.3226389
  77.0986544  38.7013465  11.4548039  67.7175330  35.4443004   5.0336188
  66.8812642  35.7817691   5.3545463  67.5780100  35.3091984   4.0963325
  69.6928411  30.2879792   9.7415372  69.0392823  29.9728809   9.1171987
  69.6508885  29.6655532  10.4675195  72.9266151  36.7761726  14.0663020
  72.0088712  36.9976673  13.9084708  73.3426295  36.8508036  13.2074727
  73.7101199  38.1753141   9.1965700  74.4573018  38.6874538   8.8872822
  73.9792788  37.8537194  10.0570093  76.1580036  35.2110257  11.1784489
  75.4202793  34.6987644  11.5094732  76.4106810  34.7710639  10.3667766
  62.5516019  38.3917196  10.1607856  62.3540419  37.7986557   9.4358923
  61.9962683  38.0869406  10.8783795  70.5312743  38.2840303  12.2802450
  70.5861353  37.3314139  12.2044926  69.7203945  38.4399742  12.7643748
  68.4705103  36.9017362  10.0392828  67.6572969  37.2011533  10.4458021
  68.9664097  36.5073051  10.7567311  70.6213681  46.8975119  11.9727093
  70.5789860  47.1235966  11.0435625  71.5376380  46.6638494  12.1212894
  74.0679315  37.3659187  18.8707722  74.4228702  37.5930660  19.7302188
  74.7151446  37.6977564  18.2484978  67.9619178  34.4735718  15.6554063
  68.6018557  34.3324477  14.9577027  67.1296708  34.1870231  15.2792665
  68.7379482  43.7738148  11.7689056  69.5320080  43.2788468  11.5671631
  68.0271174  43.2456011  11.4056761  73.5574326  46.1556244  16.1201423
  73.6111348  46.7247180  16.8879139  72.6889107  46.3258129  15.7555461
  65.0462245  37.9181230   7.8448808  64.1159833  37.8565685   8.0618771
  65.1419717  37.3957183   7.0485450  64.9647794  34.4436043  10.4327050
  65.2254611  35.3581376  10.3236211  65.7864966  33.9760485  10.5823663
  66.4372719  35.8573800  17.6025875  67.1095773  35.6491162  16.9538524
  65.6102506  35.6595886  17.1631107  72.3398291  32.4835741  19.6191536
  71.6926207  33.1825691  19.5256012  73.1099307  32.9171885  19.9867784
  75.7477089  42.7484593  22.6942089  75.5962596  42.5195145  21.7772173
  75.7381769  43.7055194  22.7073434  72.5162426  40.3216506  17.6788355
  73.4454486  40.4727665  17.5057323  72.0953456  40.4100527  16.8237002
  71.3150758  44.3467170  15.4486893  71.1761843  43.9785955  16.3212831
  70.5265354  44.8614810  15.2770851  72.8655973  43.7248773  12.8375731
  72.5305805  43.6849543  13.7333381  72.3659918  43.0593489  12.3646141
  66.8400217  39.1316403  18.3628312  66.7020015  38.3996642  18.9639851
  67.7505140  39.0425303  18.0812500  69.4682517  38.8436362  17.8511991
  70.1782136  38.2029554  17.8098610  69.4251826  39.0949257  18.7738172
  77.4569296  45.7803716  20.7718571  77.3981842  45.0962936  20.1049154
  77.8588814  46.5222706  20.3199197  68.1811451  35.8301580  19.6707631
  67.6448808  35.3792319  20.3229227  67.5928160  35.9647489  18.9278095
  66.4759995  52.5965629  13.5652290  66.7156593  53.2284154  14.2431308
  65.6329191  52.2453669  13.8517649  77.4586703  43.7443300  19.0032550
  76.5713482  43.4069221  19.1258949  78.0285254  43.0126331  19.2401316
  59.1115850  40.0767391  12.3275602  59.7986890  39.7629121  11.7396617
  58.9563979  40.9808756  12.0542853  63.9150573  34.9657588  16.7560625
  63.8308761  34.3583257  16.0211035  63.0933279  35.4566606  16.7570122
  70.9887857  48.4044752  15.9693794  70.9158028  49.2099723  16.4813098
  70.5465250  48.6036718  15.1441815  74.0874286  33.4511151  12.1230820
  74.5842986  32.6981114  11.8031891  73.3161268  33.4875468  11.5574030
  73.4486540  48.3031586  18.1251952  74.1614512  48.9379051  18.0527854
  72.9576569  48.3995452  17.3091954  75.1704067  42.2082839   9.6969244
  74.2360346  42.3284301   9.5273948  75.3480736  41.3055305   9.4329254
  70.6709255  35.5928534  11.8502505  70.3007043  35.0399575  12.5383411
  71.1668348  34.9886668  11.2977505  68.4998454  46.0526029  18.9457523
  69.2007913  46.6862512  19.0986917  68.0293569  46.3940761  18.1853162
  76.5293281  30.4180745  14.2710179  75.6156361  30.6484972  14.4392386
  76.9586383  30.5019189  15.1224212  76.2999740  38.6070637  16.7710073
  75.6471190  38.8546544  16.1162526  76.6780120  37.7934775  16.4372551
  72.3487313  39.3490448  23.2576110  71.6727950  39.2484577  23.9278486
  73.1714947  39.1929662  23.7212108  64.0966172  45.5862384  15.8788626
  64.6819609  44.8406072  16.0116530  63.8991010  45.8966341  16.7625290
  66.9504827  48.6213632  10.8951068  66.2815202  49.1059759  10.4115108
  66.8117697  48.8682852  11.8094447  58.6883827  38.1567985  14.5993069
  58.7267926  37.6231575  15.3930187  58.1824119  37.6303190  13.9804046
  71.0910096  50.6557375  17.4933726  71.6428404  50.8188997  18.2582812
  71.4316289  51.2461813  16.8213751  66.0674589  33.0032525  18.0955611
  66.1315915  33.8647356  17.6833009  66.0041709  32.3906527  17.3627970
  65.5426861  35.0755658  21.7428645  66.1698900  34.6932735  22.3566170
  64.6854780  34.8569860  22.1084338  75.9420970  45.4818633  23.3482381
  76.4860874  46.0948591  22.8537336  75.3607815  46.0398211  23.8649394
  62.3192404  36.8832087   7.6747000  62.6145845  35.9742765   7.6214054
  61.4180440  36.8619826   7.3528003  74.2278483  48.6039351  14.4797409
  74.1029622  47.8029091  13.9708354  74.8857574  49.0985544  13.9911379
  65.8486651  34.9588083  13.6574549  65.1273237  35.5724051  13.5182022
  66.6379907  35.4945848  13.5791195  76.2913391  46.4048371  16.1076959
  75.3443727  46.2853722  16.0355285  76.6396164  45.5170869  16.1903220
  68.6512965  32.2942510  19.9315201  69.1747367  32.5404806  20.6941510
  68.4325298  33.1262545  19.5118338  64.0480246  34.5646184   7.7986325
  63.7192952  33.6843563   7.6161431  64.4019616  34.5093853   8.6862715
  73.2959825  46.2001087  12.3081311  73.1484787  45.2717795  12.4888881
  74.1213318  46.2221178  11.8238386  67.1622069  34.8519154   8.1661803
  67.5018141  35.3805075   7.4440411  67.6094189  35.1899560   8.9420370
  76.8993946  47.0229646  13.3946184  77.8240494  46.8172507  13.2570635
  76.7309250  46.7746047  14.3035525  69.8565510  33.2356205  17.6164871
  69.5162330  32.4364018  18.0185551  69.1504516  33.5357916  17.0441704
  70.5081982  30.3205517  16.0692194  71.3308051  29.8465996  15.9471084
  70.7520045  31.0996001  16.5690880  69.1490216  33.3493776   6.3655096
  69.8698579  33.7275029   5.8618813  68.5255520  34.0682653   6.4690074
  68.0320560  37.0124638  13.8784173  67.8865141  37.3264941  14.7708454
  67.5545764  37.6309538  13.3255071  69.8916943  34.0027186  13.9265062
  69.8778512  33.1068279  13.5897360  70.6089371  34.0097850  14.5603348
  71.7443074  34.4364526  15.9718190  71.4860852  35.3581597  15.9702520
  71.2128114  34.0394961  16.6618654  62.5066222  39.5529982  16.8171834
  61.9619691  40.3289790  16.9492108  63.3845572  39.9000787  16.6590955
  69.2953839  32.8841566   9.1952632  69.4169750  31.9558212   9.3943520
  69.0055882  32.8980252   8.2830948  72.1645030  30.5696477  12.3319352
  72.1866726  30.6335810  11.3771332  72.5813089  29.7300985  12.5259858
  63.2932244  38.6799879  19.7101991  62.5513980  38.8282514  20.2966621
  62.9724989  38.9408144  18.8468740  71.2375907  48.2215857  19.5082381
  71.5463033  47.9765004  20.3805080  72.0351389  48.4262495  19.0201251
  71.2596519  50.3753767  11.7387757  70.8201509  49.8830145  12.4320614
  72.0104636  49.8326734  11.4979833  63.7388858  46.5665307  11.7412385
  64.5646878  46.2669079  11.3611029  63.3882910  45.7972930  12.1902174
  68.7070391  45.9191776  13.8110059  68.0850400  45.2562481  13.5112287
  69.3775258  45.9452908  13.1283707  61.9397463  44.4851634  12.7001319
  61.1029371  44.0573808  12.5185320  61.9121108  44.6784077  13.6372110
  68.7794919  34.3973564  23.4042565  68.8283074  35.2735686  23.0220335
  69.3217433  33.8550957  22.8314208  76.6751402  37.7738081  21.3135737
  77.5761265  37.6344546  21.0219735  76.7499376  37.9392536  22.2533915
  71.0094207  35.1504936  20.1588924  70.1397517  35.4438502  19.8871512
  71.2453687  35.7345381  20.8796187  66.0236531  40.4960877   8.2929588
  65.7782573  39.5923207   8.4909799  66.1932446  40.4978027   7.3509066
  73.7133241  31.3684553  17.6754344  74.2315185  32.1045580  17.3500833
  73.3588374  31.6748546  18.5101103  65.2932179  36.2289234   5.7915750
  64.6001424  36.3033589   5.1355786  65.0483931  35.4649578   6.3137267
  73.9645835  27.7884836  13.1955241  74.2447589  27.1208025  13.8215667
  74.7496442  27.9813931  12.6829905  75.8569073  33.2958053  17.1286217
  75.2619005  33.5763065  16.4332705  75.5718770  33.7851954  17.9002958
  72.0364795  42.3522388  23.5596976  72.9567804  42.5300987  23.7537023
  72.0014378  41.4078434  23.4076676  61.2546960  37.5460982  12.4850251
  60.9349744  36.6926290  12.1924625  60.7080388  37.7609560  13.2408218
  65.0326867  40.2623423  16.2019758  65.2512877  41.1940531  16.2207791
  65.4452641  39.9031397  16.9874561  71.9531085  30.7691508   8.1895446
  71.1431813  30.4238593   8.5650692  72.6415502  30.4599052   8.7783058
  69.9054733  35.8356629  25.5922507  69.8051459  36.7850986  25.5234598
  69.6876275  35.5074868  24.7198577  61.1235220  41.1663893  14.4543373
  60.4298691  40.7517846  13.9413327  61.8708211  41.2084430  13.8576792
  75.7104007  31.3575138  11.5219727  76.2103785  31.4691672  10.7134046
  76.3539615  31.0536191  12.1620536  69.7686003  39.2653768  24.4087568
  69.2853084  40.0654128  24.6151457  69.8546942  39.2761712  23.4555012
  63.0371962  41.0982147  12.3309388  63.0142650  41.1969835  11.3791271
  63.3472599  41.9447298  12.6526554  65.6959340  43.1558302  16.4456002
  66.6502594  43.1242245  16.3785934  65.4971864  42.6948926  17.2606228
  66.2858722  41.7259418  19.0126800  67.1051611  42.2203497  19.0361637
  66.5595530  40.8091386  18.9844367  64.0509569  48.6977922  13.4626200
  63.9164037  47.9378323  12.8964198  63.6341631  49.4218822  12.9954989
  76.0166342  39.6324707   8.5905045  75.9601544  40.0893258   7.7512678
  76.5694685  38.8715391   8.4127888  67.2078695  49.5947239  13.6744643
  67.0911079  50.5392671  13.5723333  66.3871141  49.2920800  14.0630442
  61.5393636  36.0597552  19.7118997  62.1852500  35.5496506  20.2006222
  61.3310788  36.7966234  20.2862422  74.0647029  43.1278400  25.2111137
  74.9338188  43.3019052  24.8497772  73.5853780  43.9472816  25.0886867
  68.2333209  50.2475501  16.8900571  69.1360456  50.2799111  17.2067066
  68.0070579  49.3175952  16.9046907  69.9886811  49.0006487  13.5510650
  69.0382442  49.0008349  13.4375022  70.2919297  48.2539222  13.0346684
  65.8791127  33.2065169  23.8094011  66.7422589  32.8501974  24.0197336
  65.3056538  32.8679064  24.4969415  72.7374561  52.2327407  15.7979646
  72.9882599  53.1174416  16.0637222  73.2734109  52.0532008  15.0254738
  76.4981927  53.2160132  20.6722469  76.3835442  52.3145389  20.9729568
  75.6426445  53.4623829  20.3207285  77.2766474  51.1865718  17.6025875
  77.9489527  50.9783080  16.9538524  76.4496260  50.9887804  17.1631107
  74.7544327  50.2949506  16.7560625  74.6702516  49.6875175  16.0211035
  73.9327034  50.7858524  16.7570122  69.5277581  53.4859902  14.5993069
  69.5661681  52.9523493  15.3930187  69.0217874  52.9595108  13.9804046
  76.9068343  48.3324443  18.0955611  76.9709670  49.1939274  17.6833009
  76.8435464  47.7198444  17.3627970  76.3820616  50.4047575  21.7428645
  77.0092655  50.0224653  22.3566170  75.5248535  50.1861777  22.1084338
  73.3459977  54.8821900  16.8171834  72.8013445  55.6581708  16.9492108
  74.2239327  55.2292705  16.6590955  74.1325999  54.0091796  19.7101991
  73.3907735  54.1574432  20.2966621  73.8118743  54.2700062  18.8468740
  77.1252477  57.0551336  19.0126800  77.9445366  57.5495415  19.0361637
  77.3989284  56.1383304  18.9844367  72.3787391  51.3889470  19.7118997
  73.0246255  50.8788424  20.2006222  72.1704542  52.1258152  20.2862422
  76.7184882  48.5357087  23.8094011  77.5816343  48.1793892  24.0197336
  76.1450293  48.1970982  24.4969415   3.9639160  44.8347756  52.4206676
   4.6964332  44.2646973  52.6544505   3.2078516  44.4469357  52.8613181
   1.4864581  38.5469331  56.8801284   1.1547905  39.4164742  56.6562499
   0.8910194  38.2305615  57.5595315   1.3793244  43.2664417  53.9594634
   0.4710121  43.1979825  53.6653395   1.3280840  43.7436362  54.7876460
   3.2454890  41.4680855  55.7372508   2.6029271  41.7613388  55.0912303
   2.7409819  41.3533776  56.5425705   0.8995054  45.2144028  46.4258367
   1.8112910  45.4471415  46.2506065   0.3904701  45.7981073  45.8633446
   3.3853868  51.1324285  51.1716313   2.7004906  51.5123186  50.6213346
   3.4697718  51.7419611  51.9048260   0.6404800  48.7784244  57.7711656
   0.8521695  49.4216004  57.0946037   0.5934548  47.9446560  57.3033586
   1.7550628  51.6556199  55.9434013   2.5768072  51.2536386  55.6616695
   1.7513031  51.5524433  56.8950129   9.8456621  47.9994948  52.2918985
   9.0920329  47.4302346  52.1362989   9.9804162  47.9657612  53.2389620
   3.5232269  49.1379878  46.9398206   2.7461712  48.7991037  46.4953368
   4.2023750  49.1432501  46.2653171   1.7623576  48.6113859  53.5964814
   1.1047251  49.3013120  53.6844943   2.5663975  49.0010291  53.9398801
   0.5729035  46.9658231  51.6468756   1.0860917  47.5988223  52.1490466
   1.2230259  46.3659427  51.2812116   1.3390831  51.9464233  49.7747899
   0.8853158  51.1055143  49.8313089   0.7084798  52.5825631  50.1122679
   0.3835378  35.6532471  51.5990335   0.6894255  34.7929834  51.3116251
   1.1087983  36.2450091  51.3989329   3.9220766  48.1523584  49.4021128
   3.7838665  48.3425180  48.4742318   3.5656985  48.9142967  49.8589179
   3.9490146  50.2200111  54.4132400   4.3826653  50.1275400  55.2615454
   4.6621727  50.1957612  53.7752416   4.8105696  50.2623812  56.9465285
   5.0041586  51.1669622  57.1924560   4.7106314  49.8031231  57.7803870
   1.5813011  53.4449677  60.5982648   1.5225557  52.7608897  59.9313231
   1.9832529  54.1868667  60.1463274   1.5830418  51.4089261  58.8296627
   0.6957197  51.0715183  58.9523026   2.1528969  50.6772292  59.0665393
   6.0647759  46.8197478  53.5913189   6.0537635  47.7022194  53.2207122
   5.1965138  46.4669029  53.3967726   2.6820333  45.7146119  50.0583355
   3.1480786  46.5474111  49.9843658   3.1327834  45.2491101  50.7628614
   1.0237661  54.6875607  53.2210261   1.9484209  54.4818469  53.0834712
   0.8552965  54.4392009  54.1299602   0.8132977  55.2061275  48.5772352
   0.9869855  54.6407697  47.8246205   1.3061869  56.0062170  48.3951842
   6.6672369  47.9697698  50.1962652   7.1103515  47.2205023  49.7981775
   5.7898879  47.9607834  49.8136384   1.8008150  54.5228039  45.6769250
   2.4959055  55.1434732  45.8956565   2.1431300  53.6723390  45.9521628
   3.6999573  51.9727745  47.2056581   4.2250897  52.3115018  46.4805901
   3.6121926  51.0374760  47.0219716   3.3893479  52.6060648  62.5107779
   2.5989023  52.5884787  61.9712279   3.1526834  53.1448942  63.2656816
   3.5091354  49.4553115  59.8240508   3.5589359  49.2903122  60.7656030
   3.4005278  48.5880374  59.4338388   0.7995117  45.4384043  61.1399814
   1.7004979  45.2990508  60.8483812   0.8743091  45.6038498  62.0797992
   5.0109551  51.8750056  60.0682529   4.7194359  52.2380037  60.9045990
   4.3981682  51.1617065  59.8895861   6.2105233  49.4402936  52.5885099
   7.0452125  49.8792740  52.7522660   6.3464362  48.9641589  51.7693345
   3.2596739  46.9982671  58.5362587   3.7350861  47.1910317  57.7281439
   2.3362305  47.0541857  58.2905971   1.9598408  43.8748431  56.7690893
   2.9115831  43.9746529  56.7903117   1.7901859  43.0826700  57.2788977
   1.7408295  54.2292811  42.6756874   1.6621926  53.8952675  43.5692632
   2.5617962  54.7214579  42.6748346   4.4386486  47.0954551  55.8833192
   4.4062806  46.1570551  56.0692876   5.0487110  47.1738587  55.1499017
   4.5880975  43.8865594  55.9291476   4.0720023  43.1024051  55.7421405
   5.4720923  43.5584311  56.0937995   2.2491701  37.6306610  51.8887288
   2.0516523  37.3221698  52.7730620   2.8591407  38.3568249  52.0185218
  10.2563036  48.1570558  55.0239229  10.9866424  47.8955846  55.5846933
   9.6469981  47.4199279  55.0641297   8.3378333  46.2978420  55.6213680
   7.6111497  46.1634385  55.0130172   7.9225620  46.6055249  56.4270399
   1.3844155  39.6216042  49.1462484   0.8042824  40.2800846  48.7640536
   1.1180088  38.7993386  48.7349901   3.5183569  41.8062653  51.9173171
   4.2943959  42.2959106  52.1897788   2.7931703  42.2320707  52.3745041
   5.9556128  42.5190272  52.9747112   6.5500619  42.2786008  52.2640420
   6.0282712  41.7997403  53.6020648   3.9514863  43.0860400  49.2419242
   3.6951797  42.6857036  50.0727450   3.3267731  43.8004194  49.1169381
   8.2627201  45.8256473  51.7490533   7.7026759  45.8949662  52.5222095
   7.6570704  45.6497458  51.0290030   1.2198944  51.9843336  44.3465312
   2.0544548  51.5524534  44.1642787   1.0583287  51.8125350  45.2742207
   9.8483219  62.5012987  54.4420489  10.4861629  62.3819734  53.7383829
   9.7304062  63.4493831  54.5008441   6.6572925  62.4540415  54.3782014
   6.3191437  62.3381480  53.4902549   7.5262694  62.0531580  54.3583020
   2.5159741  64.3075892  50.3678905   1.9524606  64.2165829  49.5995192
   2.4012136  63.4875796  50.8481397   7.1392708  63.6075267  60.3368219
   7.1281349  63.2128065  59.4648723   7.3013348  62.8741340  60.9301991
   8.0959300  67.9746859  45.6793370   7.4447280  68.5600940  45.2927383
   8.8903663  68.5053054  45.7388407   2.0214927  65.0635996  46.0780504
   2.7945803  64.5164984  45.9393380   2.3740326  65.9280246  46.2894965
   4.7856176  63.7689227  55.8748763   5.3819749  63.5445250  55.1605726
   4.8431148  63.0273973  56.4774211   4.3581205  61.2228663  43.7098954
   4.6106726  60.7010184  42.9482417   3.4205764  61.0594808  43.8125637
   9.4024488  60.2264441  51.5173697  10.1887577  59.8083864  51.1664114
   9.6663192  61.1310533  51.6855345   9.5734565  65.6637291  46.2162354
   8.9380398  65.7371918  46.9283258   9.2431971  66.2530890  45.5381433
  14.8032915  60.1639674  52.4206676  15.5358087  59.5938891  52.6544505
  14.0472270  59.7761275  52.8613181   4.0777494  63.1256769  45.9123329
   3.9613752  62.4501672  46.5804413   4.1879753  62.6389142  45.0955482
   6.4209034  62.5866916  49.6170018   6.0567242  62.0597537  50.3282939
   7.2776150  62.1965385  49.4436503  12.3258335  53.8761248  56.8801284
  11.9941660  54.7456659  56.6562499  11.7303949  53.5597532  57.5595315
   6.0614521  57.6156815  44.6131367   6.2288924  58.4837052  44.9801838
   5.8711691  57.7784097  43.6892656   8.8189855  66.0773794  56.2797197
   8.5190578  66.9798833  56.1713004   8.4740914  65.8105977  57.1318350
   2.2702336  62.5287591  52.3133901   1.3452833  62.3963805  52.5211593
   2.5186749  63.3081810  52.8103844  12.2186998  58.5956334  53.9594634
  11.3103876  58.5271743  53.6653395  12.1674594  59.0728279  54.7876460
   6.0403742  60.0714473  45.5978033   5.9203368  60.5171524  46.4363514
   5.3456331  60.4199791  45.0391571   6.2927864  60.0145980  61.9029531
   5.5161198  60.5739900  61.8932396   6.9318427  60.5002763  62.4244402
  14.0848645  56.7972773  55.7372508  13.4423025  57.0905306  55.0912303
  13.5803573  56.6825693  56.5425705  11.7388809  60.5435946  46.4258367
  12.6506665  60.7763333  46.2506065  11.2298456  61.1272990  45.8633446
  10.0229576  64.9660574  60.0619660  10.4312932  64.5242984  59.3174292
   9.3006838  64.3913201  60.3153853   6.3760646  59.9033181  57.4353217
   7.2221841  60.3272594  57.5787866   6.3159284  59.2466805  58.1291780
  10.3458391  65.5261764  53.8171949   9.7167253  65.6907479  53.1148017
   9.9584053  65.9403374  54.5882913  14.2247623  66.4616202  51.1716313
  13.5398661  66.8415104  50.6213346  14.3091472  67.0711529  51.9048260
   9.5260092  57.5637549  59.0934391   9.2821023  58.3179610  58.5568666
   9.8020022  57.9422897  59.9281638  11.4798554  64.1076161  57.7711656
  11.6915450  64.7507921  57.0946037  11.4328303  63.2738478  57.3033586
   9.0824783  56.7193982  54.6748228   8.2209262  57.0175236  54.9664966
   9.1087218  56.9364381  53.7429261   5.8986353  65.2636173  51.0822034
   6.3624698  65.5423876  50.2926656   5.6343151  64.3619617  50.8995125
   2.7910434  64.8107654  54.0201797   3.3611791  65.2394922  53.3819282
   3.3818546  64.5290239  54.7185983   4.8355239  61.3859325  47.8911599
   5.5379282  61.8380369  48.3585525   4.5035867  60.7443144  48.5191492
  12.5944382  66.9848117  55.9434013  13.4161826  66.5828304  55.6616695
  12.5906785  66.8816351  56.8950129   6.3600986  66.5332160  58.0994724
   6.4245418  66.9952567  58.9352896   5.6511910  65.9029525  58.2277034
  20.6850375  63.3286865  52.2918985  19.9314084  62.7594263  52.1362989
  20.8197917  63.2949530  53.2389620   6.0749003  68.2000268  47.9673704
   5.9394678  69.0451803  48.3958552   6.6158816  68.4019545  47.2039638
   5.4784304  55.6949727  62.2208316   6.2194017  56.2956880  62.1412779
   5.7102227  54.9527364  61.6626359   9.7998718  69.1026634  60.1255448
   9.7817193  69.9235515  59.6335717  10.7218638  68.9780709  60.3505589
   9.4241467  51.7230829  56.4972598   9.0805736  52.6132471  56.4211708
   9.7920430  51.5332487  55.6342183   9.3891750  61.7139441  45.0045033
   8.8738373  62.4844045  45.2433420   9.1169058  61.0404577  45.6278094
   6.9738861  56.5589141  50.0630271   6.1180457  56.1695992  49.8835910
   7.3865812  56.6381102  49.2030057   8.5038007  54.0935485  54.4621831
   8.0002803  54.0565620  53.6489636   8.7968614  55.0028227  54.5218488
   4.7480893  54.1774214  53.4688013   5.6133890  53.9817023  53.1093902
   4.8158402  53.9484566  54.3957370  14.3626024  64.4671795  46.9398206
  13.5855467  64.1282955  46.4953368  15.0417505  64.4724418  46.2653171
   9.1778053  59.5866533  46.8304814   8.8728188  59.9012682  47.6814957
  10.1308495  59.6647953  46.8732147   7.6224485  65.7456756  48.4797768
   7.0945846  65.0109516  48.1671005   7.1211987  66.5231432  48.2337736
  12.6017331  63.9405776  53.5964814  11.9441005  64.6305038  53.6844943
  13.4057730  64.3302208  53.9398801   2.3543212  56.4076422  50.8404380
   2.9286964  56.1851604  50.1077573   2.9414195  56.4765117  51.5932981
  11.4122790  62.2950149  51.6468756  11.9254671  62.9280141  52.1490466
  12.0624013  61.6951345  51.2812116   2.6812799  58.4380883  44.8600265
   1.8450112  58.7755570  45.1809540   2.5417569  58.3029863  43.9227402
   4.6565880  53.2817671  49.5679449   4.0030292  52.9666688  48.9436064
   4.6146354  52.6593412  50.2939272   5.7677085  63.5636966  41.4832741
   4.8604147  63.3326220  41.6823890   6.2648117  62.7674585  41.6706723
   7.8903620  59.7699605  53.8927097   6.9726182  59.9914552  53.7348785
   8.3063764  59.8445915  53.0338804   8.6738668  61.1691020  49.0229777
   9.4210487  61.6812418  48.7136899   8.9430258  60.8475073  49.8834170
   6.9465318  63.6649561  46.0056731   6.0376538  63.3808594  46.1029201
   6.9760402  64.0848640  45.1460038  12.1784586  67.2756151  49.7747899
  11.7246913  66.4347060  49.8313089  11.5478552  67.9117549  50.1122679
  11.1217505  58.2048137  51.0048566  10.3840262  57.6925523  51.3358809
  11.3744279  57.7648518  50.1931843  10.6217525  69.1132647  50.7097717
  10.9140499  69.6737704  49.9910082  11.1316146  69.4061208  51.4650876
  11.2229133  50.9824389  51.5990335  11.5288009  50.1221752  51.3116251
  11.9481737  51.5742009  51.3989329   5.4950212  61.2778182  52.1066527
   5.5498822  60.3252018  52.0309003   4.6841414  61.4337621  52.5907825
   6.6441406  65.2058305  43.3444810   6.2060836  64.4894164  42.8850447
   7.3851847  65.4334420  42.7829901   3.4342572  59.8955241  49.8656905
   2.6210438  60.1949412  50.2722098   3.9301566  59.5010930  50.5831388
   9.0316784  60.3597066  58.6971799   9.3866172  60.5868539  59.5566265
   9.6788915  60.6915443  58.0749055  14.7614521  63.4815502  49.4021128
  14.6232419  63.6717098  48.4742318  14.4050740  64.2434885  49.8589179
   2.9256647  57.4673597  55.4818140   3.5656026  57.3262356  54.7841104
   2.0934178  57.1808110  55.1056742  14.7883900  65.5492029  54.4132400
  15.2220407  65.4567318  55.2615454  15.5015481  65.5249529  53.7752416
   3.7016951  66.7676027  51.5953133   4.4957549  66.2726348  51.3935708
   2.9908643  66.2393891  51.2320838   8.5211795  69.1494123  55.9465500
   8.5748818  69.7185059  56.7143216   7.6526577  69.3196008  55.5819538
   1.4010189  58.8511679  57.4289952   2.0733242  58.6429041  56.7802601
   0.5739975  58.6533765  56.9895184  15.6499450  65.5915729  56.9465285
  15.8435340  66.4961540  57.1924560  15.5500068  65.1323149  57.7803870
   7.3035761  55.4773620  59.4455613   6.6563676  56.1763570  59.3520089
   8.0736776  55.9109764  59.8131861  10.7114559  65.7422472  62.5206166
  10.5600065  65.5133024  61.6036250  10.7019238  66.6993074  62.5337511
   7.4799895  63.3154385  57.5052432   8.4091955  63.4665545  57.3321400
   7.0590925  63.4038406  56.6501079   6.2788227  67.3405049  55.2750970
   6.1399313  66.9723834  56.1476908   5.4902823  67.8552689  55.1034928
   7.8293442  66.7186652  52.6639808   7.4943275  66.6787422  53.5597458
   7.3297388  66.0531368  52.1910218   1.8037686  62.1254282  58.1892389
   1.6657484  61.3934521  58.7903928   2.7142609  62.0363182  57.9076577
  10.7652634  64.0642686  42.9376867  10.1481804  63.3389515  42.8409920
  10.2969122  64.8252047  42.5943942   4.4319987  61.8374241  57.6776068
   5.1419605  61.1967434  57.6362687   4.3889295  62.0887136  58.6002249
  12.4206765  68.7741595  60.5982648  12.3619312  68.0900815  59.9313231
  12.8226284  69.5160585  60.1463274   3.1448921  58.8239459  59.4971708
   2.6086278  58.3730198  60.1493304   2.5565629  58.9585368  58.7542172
   2.5551180  58.2828111  42.0598172   1.6780646  58.1616912  41.6960418
   3.0308933  57.4914189  41.8077060  12.4224173  66.7381179  58.8296627
  11.5350951  66.4007100  58.9523026  12.9922724  66.0064210  59.0665393
   9.0511756  56.4449031  51.9494898   9.5480455  55.6918993  51.6295968
   8.2798737  56.4813347  51.3838107  16.9041513  62.1489396  53.5913189
  16.8931389  63.0314112  53.2207122  16.0358893  61.7960947  53.3967726
  10.1341536  65.2020718  49.5233321   9.1997815  65.3222180  49.3538025
  10.3118205  64.2993185  49.2593331   5.6346725  58.5866414  51.6766582
   5.2644512  58.0337454  52.3647488   6.1305817  57.9824547  51.1241582
  13.5214088  61.0438037  50.0583355  13.9874540  61.8766029  49.9843658
  13.9721588  60.5783019  50.7628614  11.5890319  67.3881858  47.0569507
  11.8650163  67.2738453  47.9663381  10.7194818  66.9899343  47.0181680
  11.4930751  53.4118624  54.0974256  10.5793830  53.6422851  54.2656463
  11.9223852  53.4957068  54.9488289  11.2637209  61.6008516  56.5974150
  10.6108659  61.8484423  55.9426603  11.6417589  60.7872654  56.2636628
   7.3124782  62.3428327  63.0840187   6.6365419  62.2422456  63.7542563
   8.1352416  62.1867541  63.5476185   1.0312058  55.9970404  57.9219688
   1.0953385  56.8585235  57.5097086   0.9679178  55.3844406  57.1892047
  11.2550861  69.3986250  55.9341036  10.3081196  69.2791601  55.8619362
  11.6033634  68.5108748  56.0167297   3.6150434  55.2880389  59.7579278
   4.1384836  55.5342686  60.5205587   3.3962767  56.1200424  59.3382415
   8.2597294  69.1938966  52.1345388   8.1122256  68.2655674  52.3152958
   9.0850787  69.2159057  51.6502463   2.1259538  57.8457033  47.9925880
   2.4655611  58.3742955  47.2704488   2.5731659  58.1837440  48.7684447
  11.8631416  70.0167525  53.2210261  12.7877963  69.8110386  53.0834712
  11.6946719  69.7683926  54.1299602   4.8202979  56.2294084  57.4428948
   4.4799799  55.4301897  57.8449628   4.1141985  56.5295795  56.8705781
   5.4719451  53.3143397  55.8956271   6.2945520  52.8403875  55.7735161
   5.7157514  54.0933880  56.3954957   4.1127685  56.3431655  46.1919173
   4.8336048  56.7212908  45.6882890   3.4892989  57.0620532  46.2954151
   8.2558808  57.0476804  47.1277505   8.4722423  57.9301442  46.8266333
   7.7752875  56.6563017  46.3983147   2.9958030  60.0062517  53.7048250
   2.8502610  60.3202820  54.5972531   2.5183233  60.6247418  53.1519148
   4.8554412  56.9965065  53.7529139   4.8415981  56.1006159  53.4161437
   5.5726841  57.0035729  54.3867425   6.7080543  57.4302405  55.7982267
   6.4498321  58.3519476  55.7966597   6.1765584  57.0332840  56.4882731
  11.6526732  70.5353193  48.5772352  11.8263610  69.9699615  47.8246205
  12.1455623  71.3354087  48.3951842   4.2591308  55.8779445  49.0216709
   4.3807220  54.9496092  49.2207597   3.9693351  55.8918131  48.1095025
   7.1282499  53.5634356  52.1583429   7.1504196  53.6273689  51.2035409
   7.5450558  52.7238865  52.3523935  17.5066123  63.2989615  50.1962652
  17.9497269  62.5496941  49.7981775  16.6292633  63.2899752  49.8136384
  12.6401904  69.8519957  45.6769250  13.3352809  70.4726650  45.8956565
  12.9825055  69.0015308  45.9521628  14.5393328  67.3019662  47.2056581
  15.0644652  67.6406935  46.4805901  14.4515680  66.3666678  47.0219716
   3.7432388  57.3911443  63.2306642   3.7920543  58.2673566  62.8484412
   4.2854902  56.8488836  62.6578285  14.2287234  67.9352566  62.5107779
  13.4382777  67.9176705  61.9712279  13.9920588  68.4740860  63.2656816
  14.3485109  64.7845032  59.8240508  14.3983114  64.6195040  60.7656030
  14.2399032  63.9172291  59.4338388   3.2321367  67.4633578  47.1132597
   3.3809488  68.1469043  46.4599269   4.0387811  67.4438668  47.6282052
  11.6388871  60.7675960  61.1399814  12.5398734  60.6282425  60.8483812
  11.7136846  60.9330415  62.0797992   5.9731676  58.1442815  59.9853001
   5.1034986  58.4376381  59.7135589   6.2091157  58.7283260  60.7060264
  15.8503306  67.2041974  60.0682529  15.5588114  67.5671955  60.9045990
  15.2375437  66.4908982  59.8895861  17.0498988  64.7694854  52.5885099
  17.8845879  65.2084658  52.7522660  17.1858117  64.2933507  51.7693345
  14.0990494  62.3274589  58.5362587  14.5744615  62.5202235  57.7281439
  13.1756059  62.3833774  58.2905971   0.9874000  63.4898756  48.1193666
   0.7420042  62.5861086  48.3173876   1.1569915  63.4915906  47.1773144
   8.6770710  54.3622432  57.5018421   9.1952654  55.0983459  57.1764910
   8.3225843  54.6686425  58.3365180   8.9283304  50.7822715  53.0219318
   9.2085058  50.1145904  53.6479744   9.7133911  50.9751810  52.5093982
  12.7992163  59.2040349  56.7690893  13.7509586  59.3038446  56.7903117
  12.6295613  58.4118617  57.2788977  10.8206542  56.2895932  56.9550294
  10.2256474  56.5700945  56.2596782  10.5356239  56.7789833  57.7267035
  12.5802049  69.5584729  42.6756874  12.5015681  69.2244593  43.5692632
  13.4011716  70.0506497  42.6748346  15.2780241  62.4246468  55.8833192
  15.2456561  61.4862469  56.0692876  15.8880864  62.5030505  55.1499017
   7.1163571  61.2942521  41.9260397   8.0622676  61.1648729  41.9948815
   6.7377816  60.5557183  42.4029825  15.4274729  59.2157512  55.9291476
  14.9113778  58.4315968  55.7421405  16.3114678  58.8876228  56.0937995
  13.0885456  52.9598527  51.8887288  12.8910277  52.6513616  52.7730620
  13.6985162  53.6860166  52.0185218  21.0956790  63.4862475  55.0239229
  21.8260179  63.2247763  55.5846933  20.4863736  62.7491197  55.0641297
  19.1772088  61.6270338  55.6213680  18.4505251  61.4926303  55.0130172
  18.7619374  61.9347166  56.4270399   5.3006489  59.2192498  41.8615282
   4.3937944  58.9225610  41.9377995   5.5782470  58.9222316  40.9949568
   6.9168554  53.7629387  48.0159523   6.1069283  53.4176472  48.3914769
   7.6052971  53.4536931  48.6047135   8.8459103  52.8407434  49.6383820
   9.3990141  53.2602888  50.2973843   9.0829189  51.9143182  49.6806776
   4.0705273  56.0779433  42.0027261   4.9324437  56.4034331  42.2623078
   4.2555617  55.2910929  41.4900327  12.2237910  54.9507959  49.1462484
  11.6436579  55.6092763  48.7640536  11.9573842  54.1285304  48.7349901
  10.6741476  54.3513017  51.3483804  11.1741254  54.4629552  50.5398123
  11.3177084  54.0474070  51.9884613  11.0062788  57.1108050  48.2018832
  10.1188643  57.3957700  47.9839027  11.4216777  56.9501813  47.3546109
  14.3577324  57.1354571  51.9173171  15.1337714  57.6251023  52.1897788
  13.6325458  57.5612625  52.3745041  16.7949882  57.8482190  52.9747112
  17.3894373  57.6077926  52.2640420  16.8676466  57.1289321  53.6020648
  10.1506001  66.8752724  42.2966852  10.8541851  67.0802727  42.9124508
   9.4268650  67.4429486  42.5615936  10.9803811  62.6262586  48.4169122
  10.9239013  63.0831137  47.5776755  11.5332154  61.8653270  48.2391965
  14.7908617  58.4152318  49.2419242  14.5345552  58.0148953  50.0727450
  14.1661485  59.1296112  49.1169381  19.1020955  61.1548391  51.7490533
  18.5420513  61.2241580  52.5222095  18.4964459  60.9789375  51.0290030
  12.0592699  67.3135254  44.3465312  12.8938302  66.8816452  44.1642787
  11.8977041  67.1417267  45.2742207  11.7138591  63.8167367  45.7121652
  11.6587395  63.6511638  44.7710096  11.0884646  64.5243400  45.8683841
   5.0234716  53.3175476  45.2906970   5.0113386  54.2617316  45.4475241
   5.9158138  53.1345621  44.9966431   8.8386836  49.9118253  49.5452907
   8.0719231  49.3576739  49.6909589   9.2497541  49.9840121  50.4067058
  25.6426669  75.4931592  52.4206676  26.3751841  74.9230809  52.6544505
  24.8866025  75.1053192  52.8613181  23.1652090  69.2053166  56.8801284
  22.8335414  70.0748577  56.6562499  22.5697703  68.8889450  57.5595315
  23.0580753  73.9248252  53.9594634  22.1497630  73.8563661  53.6653395
  23.0068349  74.4020197  54.7876460  24.9242399  72.1264691  55.7372508
  24.2816780  72.4197224  55.0912303  24.4197328  72.0117611  56.5425705
  20.3653846  72.8929467  59.0934391  20.1214778  73.6471527  58.5568666
  20.6413777  73.2714814  59.9281638  19.9218538  72.0485900  54.6748228
  19.0603017  72.3467153  54.9664966  19.9480972  72.2656299  53.7429261
  16.3178058  71.0241644  62.2208316  17.0587772  71.6248797  62.1412779
  16.5495981  70.2819282  61.6626359  20.2635221  67.0522747  56.4972598
  19.9199491  67.9424389  56.4211708  20.6314184  66.8624405  55.6342183
  17.8132615  71.8881059  50.0630271  16.9574212  71.4987909  49.8835910
  18.2259567  71.9673020  49.2030057  19.3431762  69.4227402  54.4621831
  18.8396557  69.3857537  53.6489636  19.6362369  70.3320145  54.5218488
  15.5874648  69.5066132  53.4688013  16.4527644  69.3108941  53.1093902
  15.6552157  69.2776484  54.3957370  13.1936967  71.7368340  50.8404380
  13.7680719  71.5143521  50.1077573  13.7807949  71.8057034  51.5932981
  15.4959634  68.6109589  49.5679449  14.8424047  68.2958606  48.9436064
  15.4540109  67.9885329  50.2939272  21.9611260  73.5340054  51.0048566
  21.2234017  73.0217441  51.3358809  22.2138033  73.0940436  50.1931843
  22.0622887  66.3116306  51.5990335  22.3681764  65.4513670  51.3116251
  22.7875492  66.9033927  51.3989329  18.1429515  70.8065538  59.4455613
  17.4957430  71.5055487  59.3520089  18.9130531  71.2401682  59.8131861
  19.8905510  71.7740948  51.9494898  20.3874210  71.0210911  51.6295968
  19.1192492  71.8105265  51.3838107  22.3324505  68.7410542  54.0974256
  21.4187585  68.9714769  54.2656463  22.7617607  68.8248986  54.9488289
  14.4544188  70.6172307  59.7579278  14.9778590  70.8634603  60.5205587
  14.2356522  71.4492342  59.3382415  15.6596734  71.5586002  57.4428948
  15.3193554  70.7593815  57.8449628  14.9535740  71.8587713  56.8705781
  16.3113205  68.6435314  55.8956271  17.1339275  68.1695792  55.7735161
  16.5551269  69.4225798  56.3954957  19.0952563  72.3768722  47.1277505
  19.3116177  73.2593360  46.8266333  18.6146630  71.9854935  46.3983147
  15.6948167  72.3256983  53.7529139  15.6809736  71.4298076  53.4161437
  16.4120595  72.3327647  54.3867425  15.0985063  71.2071363  49.0216709
  15.2200974  70.2788009  49.2207597  14.8087105  71.2210049  48.1095025
  17.9676253  68.8926274  52.1583429  17.9897950  68.9565607  51.2035409
  18.3844312  68.0530782  52.3523935  19.5164465  69.6914350  57.5018421
  20.0346409  70.4275377  57.1764910  19.1619598  69.9978343  58.3365180
  19.7677059  66.1114632  53.0219318  20.0478813  65.4437821  53.6479744
  20.5527666  66.3043728  52.5093982  23.6385917  74.5332266  56.7690893
  24.5903340  74.6330364  56.7903117  23.4689368  73.7410535  57.2788977
  21.6600297  71.6187850  56.9550294  21.0650229  71.8992862  56.2596782
  21.3749993  72.1081751  57.7267035  26.2668484  74.5449429  55.9291476
  25.7507532  73.7607886  55.7421405  27.1508432  74.2168146  56.0937995
  23.9279210  68.2890445  51.8887288  23.7304032  67.9805533  52.7730620
  24.5378916  69.0152084  52.0185218  30.0165842  76.9562255  55.6213680
  29.2899006  76.8218220  55.0130172  29.6013129  77.2639084  56.4270399
  17.7562309  69.0921305  48.0159523  16.9463037  68.7468390  48.3914769
  18.4446726  68.7828849  48.6047135  19.6852857  68.1699352  49.6383820
  20.2383896  68.5894805  50.2973843  19.9222943  67.2435100  49.6806776
  14.9099028  71.4071351  42.0027261  15.7718192  71.7326249  42.2623078
  15.0949372  70.6202847  41.4900327  23.0631664  70.2799877  49.1462484
  22.4830333  70.9384681  48.7640536  22.7967597  69.4577222  48.7349901
  21.5135231  69.6804935  51.3483804  22.0135009  69.7921469  50.5398123
  22.1570838  69.3765988  51.9884613  21.8456542  72.4399967  48.2018832
  20.9582397  72.7249618  47.9839027  22.2610531  72.2793731  47.3546109
  25.1971078  72.4646488  51.9173171  25.9731468  72.9542941  52.1897788
  24.4719212  72.8904543  52.3745041  27.6343637  73.1774108  52.9747112
  28.2288128  72.9369844  52.2640420  27.7070221  72.4581238  53.6020648
  25.6302372  73.7444235  49.2419242  25.3739306  73.3440871  50.0727450
  25.0055240  74.4588029  49.1169381  29.9414710  76.4840309  51.7490533
  29.3814268  76.5533498  52.5222095  29.3358213  76.3081293  51.0290030
  15.8628471  68.6467394  45.2906970  15.8507141  69.5909234  45.4475241
  16.7551893  68.4637539  44.9966431  19.6780590  65.2410170  49.5452907
  18.9112986  64.6868657  49.6909589  20.0891295  65.3132039  50.4067058
   3.9639162  21.8409879  39.1451982   4.6964333  21.2709096  39.3789812
   3.2078517  21.4531480  39.5858488   1.4864582  15.5531453  43.6046591
   1.1547907  16.4226864  43.3807806   0.8910195  15.2367737  44.2840621
   1.3793245  20.2726539  40.6839941   0.4710123  20.2041948  40.3898702
   1.3280841  20.7498484  41.5121766   3.2454892  18.4742978  42.4617815
   2.6029272  18.7675511  41.8157609   2.7409820  18.3595898  43.2671011
   0.8995055  22.2206151  33.1503674   1.8112911  22.4533538  32.9751372
   0.3904702  22.8043195  32.5878753   3.3853869  28.1386407  37.8961619
   2.7004908  28.5185309  37.3458653   3.4697719  28.7481734  38.6293567
   0.6404801  25.7846366  44.4956963   0.8521696  26.4278126  43.8191344
   0.5934549  24.9508683  44.0278893   1.7550629  28.6618322  42.6679320
   2.5768073  28.2598509  42.3862002   1.7513032  28.5586556  43.6195436
   9.8456622  25.0057070  39.0164292   9.0920330  24.4364468  38.8608296
   9.9804163  24.9719735  39.9634926   3.5232271  26.1442000  33.6643513
   2.7461713  25.8053160  33.2198675   4.2023752  26.1494623  32.9898478
   1.7623577  25.6175981  40.3210121   1.1047252  26.3075243  40.4090250
   2.5663977  26.0072413  40.6644107   0.5729036  23.9720354  38.3714063
   1.0860918  24.6050346  38.8735772   1.2230260  23.3721550  38.0057423
   1.3390832  28.9526356  36.4993205   0.8853160  28.1117265  36.5558396
   0.7084799  29.5887754  36.8367986   0.3835379  12.6594594  38.3235642
   0.6894256  11.7991957  38.0361557   1.1087984  13.2512214  38.1234636
   3.9220768  25.1585707  36.1266435   3.7838666  25.3487303  35.1987624
   3.5656986  25.9205090  36.5834486   3.9490147  27.2262234  41.1377706
   4.3826654  27.1337523  41.9860760   4.6621728  27.2019734  40.4997722
   4.8105697  27.2685934  43.6710592   5.0041587  28.1731745  43.9169867
   4.7106315  26.8093353  44.5049177   1.5813012  30.4511800  47.3227954
   1.5225558  29.7671020  46.6558537   1.9832531  31.1930790  46.8708580
   1.5830419  28.4151384  45.5541934   0.6957198  28.0777305  45.6768333
   2.1528970  27.6834415  45.7910699   6.0647760  23.8259601  40.3158496
   6.0537636  24.7084316  39.9452429   5.1965139  23.4731152  40.1213033
   2.6820335  22.7208242  36.7828662   3.1480787  23.5536234  36.7088964
   3.1327835  22.2553224  37.4873920   1.0237663  31.6937730  39.9455567
   1.9484210  31.4880591  39.8080018   0.8552966  31.4454131  40.8544909
   0.8132979  32.2123397  35.3017659   0.9869856  31.6469820  34.5491511
   1.3061870  33.0124292  35.1197149   6.6672370  24.9759820  36.9207959
   7.1103516  24.2267146  36.5227082   5.7898880  24.9669957  36.5381691
   1.8008151  31.5290162  32.4014557   2.4959056  32.1496855  32.6201872
   2.1431301  30.6785513  32.6766935   3.6999574  28.9789867  33.9301888
   4.2250898  29.3177140  33.2051208   3.6121927  28.0436883  33.7465022
   3.3893480  29.6122771  49.2353086   2.5989024  29.5946910  48.6957585
   3.1526835  30.1511065  49.9902122   3.5091355  26.4615237  46.5485814
   3.5589360  26.2965245  47.4901337   3.4005279  25.5942496  46.1583695
   0.7995118  22.4446165  47.8645121   1.7004981  22.3052630  47.5729119
   0.8743092  22.6100620  48.8043298   5.0109552  28.8812179  46.7927836
   4.7194361  29.2442159  47.6291297   4.3981684  28.1679187  46.6141168
   6.2105235  26.4465059  39.3130406   7.0452126  26.8854863  39.4767966
   6.3464363  25.9703712  38.4938652   3.2596741  24.0044794  45.2607894
   3.7350862  24.1972440  44.4526745   2.3362306  24.0603979  45.0151278
   1.9598410  20.8810554  43.4936199   2.9115832  20.9808651  43.5148424
   1.7901860  20.0888822  44.0034284   1.7408296  31.2354934  29.4002181
   1.6621928  30.9014798  30.2937938   2.5617963  31.7276702  29.3993653
   4.4386487  24.1016673  42.6078499   4.4062807  23.1632674  42.7938183
   5.0487111  24.1800710  41.8744324   4.5880976  20.8927717  42.6536782
   4.0720024  20.1086173  42.4666711   5.4720924  20.5646433  42.8183302
   2.2491703  14.6368732  38.6132595   2.0516524  14.3283820  39.4975927
   2.8591408  15.3630371  38.7430525  10.2563037  25.1632680  41.7484536
  10.9866426  24.9017968  42.3092239   9.6469983  24.4261402  41.7886604
   8.3378334  23.3040543  42.3458987   7.6111498  23.1696508  41.7375479
   7.9225621  23.6117371  43.1515705   1.3844156  16.6278164  35.8707791
   0.8042825  17.2862968  35.4885843   1.1180089  15.8055509  35.4595208
   3.5183571  18.8124776  38.6418478   4.2943961  19.3021228  38.9143095
   2.7931705  19.2382830  39.0990348   5.9556129  19.5252395  39.6992419
   6.5500620  19.2848131  38.9885727   6.0282713  18.8059525  40.3265955
   3.9514864  20.0922523  35.9664548   3.6951798  19.6919158  36.7972756
   3.3267732  20.8066316  35.8414688   8.2627202  22.8318596  38.4735840
   7.7026760  22.9011785  39.2467402   7.6570705  22.6559580  37.7535336
   1.2198945  28.9905459  31.0710619   2.0544549  28.5586657  30.8888094
   1.0583288  28.8187472  31.9987513   9.8483220  39.5075110  41.1665796
  10.4861630  39.3881857  40.4629136   9.7304063  40.4555954  41.2253748
   6.6572927  39.4602538  41.1027320   6.3191438  39.3443603  40.2147855
   7.5262695  39.0593703  41.0828326   2.5159742  41.3138014  37.0924211
   1.9524608  41.2227951  36.3240499   2.4012137  40.4937919  37.5726704
   7.1392710  40.6137390  47.0613526   7.1281350  40.2190188  46.1894030
   7.3013349  39.8803462  47.6547297   8.0959301  44.9808982  32.4038676
   7.4447281  45.5663062  32.0172690   8.8903664  45.5115177  32.4633714
   2.0214928  42.0698119  32.8025811   2.7945804  41.5227106  32.6638686
   2.3740327  42.9342368  33.0140272   3.8599971  43.3974501  46.0092710
   3.5689837  44.3020132  45.8939376   4.4956955  43.4391029  46.7236779
   4.7856178  40.7751350  42.5994069   5.3819750  40.5507372  41.8851032
   4.8431149  40.0336095  43.2019517   4.3581206  38.2290785  30.4344260
   4.6106727  37.7072306  29.6727723   3.4205765  38.0656931  30.5370944
   9.4024489  37.2326564  38.2419004  10.1887578  36.8145987  37.8909421
   9.6663193  38.1372656  38.4100652   9.5734566  42.6699414  32.9407660
   8.9380399  42.7434040  33.6528565   9.2431973  43.2593013  32.2626740
  14.8032916  37.1701797  39.1451982  15.5358088  36.6001014  39.3789812
  14.0472272  36.7823397  39.5858488   4.0777495  40.1318891  32.6368635
   3.9613753  39.4563795  33.3049720   4.1879755  39.6451265  31.8200788
   6.4209036  39.5929038  36.3415325   6.0567243  39.0659659  37.0528246
   7.2776152  39.2027507  36.1681810  12.3258336  30.8823371  43.6046591
  11.9941661  31.7518782  43.3807806  11.7303950  30.5659655  44.2840621
   6.0614523  34.6218938  31.3376673   6.2288925  35.4899174  31.7047144
   5.8711692  34.7846220  30.4137962   8.8189856  43.0835917  43.0042504
   8.5190579  43.9860956  42.8958311   8.4740915  42.8168100  43.8563656
   2.2702337  39.5349714  39.0379208   1.3452834  39.4025928  39.2456900
   2.5186751  40.3143933  39.5349150  12.2187000  35.6018457  40.6839941
  11.3103877  35.5333865  40.3898702  12.1674595  36.0790402  41.5121766
   6.0403744  37.0776595  32.3223340   5.9203369  37.5233646  33.1608820
   5.3456332  37.4261913  31.7636878   3.8010636  49.8480237  35.9713471
   3.7234665  50.7988062  36.0501952   3.1972279  49.5026110  36.6288398
   6.2927865  37.0208103  48.6274838   5.5161200  37.5802023  48.6177703
   6.9318429  37.5064886  49.1489708  14.0848646  33.8034895  42.4617815
  13.4423026  34.0967429  41.8157609  13.5803575  33.6887816  43.2671011
  11.7388810  37.5498069  33.1503674  12.6506666  37.7825455  32.9751372
  11.2298457  38.1335113  32.5878753   4.5474238  39.8293556  48.1892805
   5.2888922  40.3678600  47.9127629   3.8411223  40.4559845  48.3464357
  10.0229577  41.9722696  46.7864967  10.4312933  41.5305107  46.0419599
   9.3006839  41.3975324  47.0399159   6.3760647  36.9095303  44.1598524
   7.2221843  37.3334717  44.3033173   6.3159285  36.2528928  44.8537087
  10.3458392  42.5323887  40.5417255   9.7167255  42.6969601  39.8393323
   9.9584054  42.9465497  41.3128220  14.2247624  43.4678325  37.8961619
  13.5398662  43.8477226  37.3458653  14.3091473  44.0773652  38.6293567
   9.5260093  34.5699672  45.8179697   9.2821025  35.3241732  45.2813973
   9.8020023  34.9485019  46.6526944  11.4798556  41.1138284  44.4956963
  11.6915451  41.7570044  43.8191344  11.4328304  40.2800601  44.0278893
   9.0824785  33.7256105  41.3993535   8.2209264  34.0237358  41.6910272
   9.1087219  33.9426504  40.4674568   5.8986354  42.2698295  37.8067341
   6.3624699  42.5485998  37.0171963   5.6343152  41.3681740  37.6240431
   2.7910435  41.8169777  40.7447104   3.3611792  42.2457045  40.1064588
   3.3818547  41.5352361  41.4431290   4.8355240  38.3921448  34.6156906
   5.5379283  38.8442491  35.0830832   4.5035869  37.7505266  35.2436799
   3.2835602  36.9833204  48.9908115   2.6534262  37.6649485  49.2243512
   3.1771689  36.8716286  48.0461253  12.5944384  43.9910239  42.6679320
  13.4161827  43.5890427  42.3862002  12.5906786  43.8878474  43.6195436
   6.3600987  43.5394283  44.8240031   6.4245419  44.0014690  45.6598202
   5.6511911  42.9091648  44.9522340  20.6850377  40.3348988  39.0164292
  19.9314085  39.7656386  38.8608296  20.8197918  40.3011652  39.9634926
   6.0749005  45.2062390  34.6919011   5.9394679  46.0513926  35.1203859
   6.6158817  45.4081668  33.9284945   2.5616344  31.2853970  51.3533366
   2.1683290  30.7320169  52.0281010   3.3782485  31.5964548  51.7439884
   1.3373287  45.8403584  37.3469689   1.5139915  46.7621549  37.1590673
   2.1330120  45.5262004  37.7764069   5.4784305  32.7011849  48.9453623
   6.2194019  33.3019002  48.8658085   5.7102228  31.9589487  48.3871665
   7.7017481  45.8285957  48.8219353   7.2581335  45.0422335  48.5040258
   8.3634695  46.0165107  48.1563244   2.4604602  47.3581758  43.3480032
   3.0112027  47.2298822  42.5757025   1.6216078  47.6576647  42.9974924
   9.7998719  46.1088757  46.8500754   9.7817194  46.9297638  46.3581023
  10.7218639  45.9842832  47.0750895   6.2571773  43.6232886  47.6924263
   6.7900110  42.8621174  47.4623571   5.7285854  43.3306538  48.4348417
   9.4241468  28.7292952  43.2217904   9.0805738  29.6194594  43.1457015
   9.7920431  28.5394610  42.3587489   9.3891751  38.7201563  31.7290340
   8.8738374  39.4906168  31.9678727   9.1169059  38.0466699  32.3523401
   6.9738862  33.5651264  36.7875578   6.1180458  33.1758114  36.6081217
   7.3865814  33.6443225  35.9275363   8.5038009  31.0997607  41.1867138
   8.0002804  31.0627742  40.3734943   8.7968615  32.0090350  41.2463794
   4.7480894  31.1836337  40.1933319   5.6133891  30.9879146  39.8339209
   4.8158403  30.9546689  41.1202676  14.3626025  41.4733918  33.6643513
  13.5855468  41.1345077  33.2198675  15.0417506  41.4786541  32.9898478
   9.1778054  36.5928655  33.5550121   8.8728190  36.9074804  34.4060264
  10.1308496  36.6710075  33.5977454   7.6224486  42.7518879  35.2043075
   7.0945848  42.0171638  34.8916312   7.1211989  43.5293555  34.9583043
  12.6017332  40.9467899  40.3210121  11.9441006  41.6367160  40.4090250
  13.4057731  41.3364331  40.6644107   2.3543214  33.4138545  37.5649686
   2.9286965  33.1913726  36.8322879   2.9414196  33.4827239  38.3178287
  11.4122791  39.3012272  38.3714063  11.9254673  39.9342264  38.8735772
  12.0624015  38.7013467  38.0057423   2.6812801  35.4443006  31.5845571
   1.8450113  35.7817692  31.9054846   2.5417570  35.3091986  30.6472708
   4.6565881  30.2879794  36.2924756   4.0030294  29.9728811  35.6681370
   4.6146355  29.6655534  37.0184579   5.7677086  40.5699089  28.2078048
   4.8604148  40.3388342  28.4069197   6.2648118  39.7736708  28.3952029
   8.6745165  49.2796596  31.1274734   8.0006864  49.5828293  31.7359692
   9.0610987  50.0825676  30.7780191   7.8903622  36.7761727  40.6172403
   6.9726183  36.9976674  40.4594091   8.3063765  36.8508038  39.7584111
   8.6738669  38.1753143  35.7475084   9.4210488  38.6874540  35.4382206
   8.9430259  37.8537196  36.6079477   6.9465320  40.6711684  32.7302038
   6.0376539  40.3870717  32.8274508   6.9760403  41.0910762  31.8705345
  12.1784587  44.2818273  36.4993205  11.7246914  43.4409183  36.5558396
  11.5478554  44.9179672  36.8367986  11.1217507  35.2110259  37.7293873
  10.3840263  34.6987645  38.0604115  11.3744280  34.7710641  36.9177150
  10.6217526  46.1194770  37.4343024  10.9140501  46.6799827  36.7155389
  11.1316147  46.4123331  38.1896183  11.2229134  27.9886511  38.3235642
  11.5288011  27.1283875  38.0361557  11.9481739  28.5804131  38.1234636
   5.4950214  38.2840304  38.8311833   5.5498823  37.3314141  38.7554310
   4.6841416  38.4399743  39.3153132   6.6441407  42.2120427  30.0690116
   6.2060837  41.4956286  29.6095754   7.3851848  42.4396542  29.5075208
   3.4342574  36.9017364  36.5902212   2.6210439  37.2011535  36.9967404
   3.9301568  36.5073053  37.3076694   5.5851151  46.8975121  38.5236477
   5.5427330  47.1235967  37.5945009   6.5013850  46.6638496  38.6722278
   9.0316785  37.3659189  45.4217106   9.3866173  37.5930662  46.2811572
   9.6788916  37.6977565  44.7994361  14.7614522  40.4877624  36.1266435
  14.6232421  40.6779220  35.1987624  14.4050741  41.2497007  36.5834486
   2.9256648  34.4735720  42.2063447   3.5656028  34.3324479  41.5086410
   2.0934179  34.1870233  41.8302049  14.7883902  42.5554151  41.1377706
  15.2220408  42.4629441  41.9860760  15.5015482  42.5311652  40.4997722
   3.7016952  43.7738150  38.3198439   4.4957551  43.2788470  38.1181014
   2.9908645  43.2456013  37.9566145   8.5211797  46.1556246  42.6710807
   8.5748819  46.7247182  43.4388523   7.6526578  46.3258131  42.3064844
   1.4010190  35.8573802  44.1535258   2.0733243  35.6491164  43.5047907
   0.5739977  35.6595888  43.7140491  15.6499451  42.5977852  43.6710592
  15.8435341  43.5023663  43.9169867  15.5500069  42.1385271  44.5049177
   7.3035762  32.4835743  46.1700919   6.6563677  33.1825692  46.0765396
   8.0736777  32.9171887  46.5377167  10.7114560  42.7484595  49.2451472
  10.5600066  42.5195147  48.3281556  10.7019239  43.7055196  49.2582817
   7.4799896  40.3216508  44.2297739   8.4091956  40.4727667  44.0566706
   7.0590926  40.4100528  43.3746385   6.2788228  44.3467172  41.9996277
   6.1399314  43.9785956  42.8722215   5.4902824  44.8614811  41.8280234
   6.8736380  49.4476268  33.3421813   7.0488136  48.9764312  34.1567436
   6.1869168  50.0742035  33.5703074   7.8293443  43.7248775  39.3885114
   7.4943276  43.6849545  40.2842764   7.3297389  43.0593491  38.9155525
   1.8037687  39.1316405  44.9137695   1.6657485  38.3996644  45.5149235
   2.7142611  39.0425305  44.6321883  10.7652635  41.0704809  29.6622174
  10.1481806  40.3451637  29.5655227  10.2969123  41.8314169  29.3189248
   4.4319988  38.8436364  44.4021375   5.1419606  38.2029556  44.3607994
   4.3889296  39.0949259  45.3247556  12.4206767  45.7803717  47.3227954
  12.3619313  45.0962937  46.6558537  12.8226285  46.5222707  46.8708580
   3.1448922  35.8301582  46.2217015   2.6086279  35.3792320  46.8738611
   2.5565630  35.9647491  45.4787479   1.4397465  52.5965631  40.1161673
   1.6794064  53.2284155  40.7940692   0.5966662  52.2453671  40.4027032
   2.5551181  35.2890233  28.7843478   1.6780647  35.1679034  28.4205725
   3.0308934  34.4976312  28.5322367  12.4224174  43.7443301  45.5541934
  11.5350953  43.4069223  45.6768333  12.9922725  43.0126333  45.7910699
   5.9525327  48.4044754  42.5203177   5.8795499  49.2099725  43.0322482
   5.5102720  48.6036719  41.6951199   5.7415107  47.6416524  36.0305999
   4.9582629  48.1838204  36.1244223   6.4407852  48.1590503  36.4300240
   9.0511757  33.4511153  38.6740204   9.5480457  32.6981115  38.3541274
   8.2798739  33.4875470  38.1083413  16.9041514  39.1551519  40.3158496
  16.8931391  40.0376234  39.9452429  16.0358894  38.8023070  40.1213033
   8.4124011  48.3031588  44.6761336   9.1251983  48.9379053  44.6037237
   7.9214039  48.3995454  43.8601338  10.1341538  42.2082840  36.2478628
   9.1997816  42.3284303  36.0783332  10.3118206  41.3055307  35.9838637
   5.6346726  35.5928536  38.4011889   5.2644513  35.0399577  39.0892794
   6.1305818  34.9886670  37.8486889  13.5214089  38.0500160  36.7828662
  13.9874541  38.8828151  36.7088964  13.9721590  37.5845141  37.4873920
   3.4635924  46.0526031  45.4966907   4.1645384  46.6862514  45.6496301
   2.9931039  46.3940763  44.7362546  11.5890320  44.3943981  33.7814814
  11.8650164  44.2800576  34.6908688  10.7194819  43.9961466  33.7426987
  11.4930752  30.4180747  40.8219563  10.5793832  30.6484973  40.9901770
  11.9223853  30.5019191  41.6733595  11.2637210  38.6070639  43.3219457
  10.6108661  38.8546546  42.6671910  11.6417590  37.7934777  42.9881934
   8.2244384  48.6430332  37.4247627   8.4066779  47.8251988  37.8875380
   9.0477370  48.8598024  36.9872517   8.5586550  47.5698517  34.6862676
   9.0874316  47.0590971  34.0732838   8.8214769  47.2541047  35.5508209
   7.3124783  39.3490450  49.8085494   6.6365420  39.2484579  50.4787869
   8.1352417  39.1929663  50.2721491   1.9142298  48.6213634  37.4460452
   1.2452673  49.1059761  36.9624492   1.7755167  48.8682854  38.3603830
   6.0547566  50.6557377  44.0443110   6.6065874  50.8188999  44.8092195
   6.3953760  51.2461815  43.3723135   1.0312059  33.0032527  44.6464995
   1.0953386  33.8647358  44.2342393   0.9679180  32.3906529  43.9137353
  10.9058441  45.4818635  49.8991765  11.4498345  46.0948593  49.4046719
  10.3245285  46.0398213  50.4158778   9.1915953  48.6039353  41.0306792
   9.0667093  47.8029092  40.5217738   9.8495045  49.0985546  40.5420762
  11.2550862  46.4048373  42.6586342  10.3081197  46.2853724  42.5864669
  11.6033635  45.5170871  42.7412604   3.6150435  32.2942512  46.4824584
   4.1384837  32.5404808  47.2450894   3.3962769  33.1262546  46.0627722
   8.2597295  46.2001089  38.8590695   8.1122258  45.2717796  39.0398265
   9.0850789  46.2221180  38.3747770   2.1259539  34.8519156  34.7171187
   2.4655612  35.3805077  33.9949795   2.5731660  35.1899562  35.4929753
  11.8631417  47.0229648  39.9455567  12.7877964  46.8172509  39.8080018
  11.6946720  46.7746049  40.8544909   4.8202980  33.2356207  44.1674255
   4.4799801  32.4364020  44.5694935   4.1141987  33.5357918  43.5951088
   5.4719452  30.3205519  42.6201578   6.2945521  29.8465997  42.4980468
   5.7157516  31.0996003  43.1200264   4.1127687  33.3493778  32.9164479
   4.8336049  33.7275030  32.4128196   3.4892991  34.0682654  33.0199457
   8.2558809  34.0538927  33.8522812   8.4722424  34.9363564  33.5511640
   7.7752877  33.6625140  33.1228454   2.9958031  37.0124640  40.4293556
   2.8502612  37.3264943  41.3217838   2.5183234  37.6309540  39.8764455
   4.8554414  34.0027188  40.4774446   4.8415983  33.1068281  40.1406744
   5.5726842  34.0097852  41.1112732   6.7080544  34.4364528  42.5227573
   6.4498322  35.3581599  42.5211904   6.1765585  34.0394963  43.2128038
  11.6526733  47.5415315  35.3017659  11.8263611  46.9761738  34.5491511
  12.1455624  48.3416210  35.1197149   4.2591310  32.8841568  35.7462016
   4.3807221  31.9558214  35.9452904   3.9693352  32.8980254  34.8340332
   7.1282500  30.5696479  38.8828736   7.1504197  30.6335812  37.9280716
   7.5450559  29.7300987  39.0769242  17.5066124  40.3051738  36.9207959
  17.9497270  39.5559063  36.5227082  16.6292635  40.2961874  36.5381691
  12.6401906  46.8582080  32.4014557  13.3352810  47.4788772  32.6201872
  12.9825056  46.0077431  32.6766935  14.5393329  44.3081785  33.9301888
  15.0644653  44.6469058  33.2051208  14.4515681  43.3728800  33.7465022
   6.2013378  48.2215859  46.0591764   6.5100504  47.9765005  46.9314464
   6.9988860  48.4262497  45.5710635   6.2233990  50.3753768  38.2897141
   5.7838980  49.8830147  38.9829998   6.9742107  49.8326736  38.0489216
   3.6707862  45.9191777  40.3619443   3.0487871  45.2562482  40.0621671
   4.3412729  45.9452909  39.6793090   3.7432389  34.3973565  49.9551949
   3.7920545  35.2735688  49.5729718   4.2854903  33.8550958  49.3823592
  14.2287235  44.9414689  49.2353086  13.4382779  44.9238828  48.6957585
  13.9920589  45.4802982  49.9902122  14.3485110  41.7907155  46.5485814
  14.3983115  41.6257163  47.4901337  14.2399033  40.9234414  46.1583695
   3.2321369  44.4695701  33.8377903   3.3809489  45.1531165  33.1844576
   4.0387812  44.4500791  34.3527359  11.6388872  37.7738083  47.8645121
  12.5398735  37.6344548  47.5729119  11.7136847  37.9392538  48.8043298
   5.9731678  35.1504938  46.7098307   5.1034987  35.4438504  46.4380896
   6.2091158  35.7345383  47.4305571  15.8503307  44.2104097  46.7927836
  15.5588115  44.5734077  47.6291297  15.2375438  43.4971105  46.6141168
  17.0498989  41.7756976  39.3130406  17.8845880  42.2146780  39.4767966
  17.1858118  41.2995630  38.4938652  14.0990495  39.3336711  45.2607894
  14.5744617  39.5264358  44.4526745  13.1756060  39.3895897  45.0151278
   0.9874002  40.4960878  34.8438972   0.7420044  39.5923208  35.0419182
   1.1569916  40.4978029  33.9018450   8.6770712  31.3684555  44.2263728
   9.1952655  32.1045582  43.9010216   8.3225844  31.6748548  45.0610487
   8.9283306  27.7884837  39.7464624   9.2085059  27.1208026  40.3725051
   9.7133913  27.9813933  39.2339288   6.7316774  46.9643831  31.3089651
   6.1590741  47.5834018  30.8560123   7.3049568  47.5143193  31.8429573
  12.7992164  36.2102471  43.4936199  13.7509587  36.3100569  43.5148424
  12.6295614  35.4180740  44.0034284  10.8206543  33.2958055  43.6795600
  10.2256476  33.5763067  42.9842089  10.5356240  33.7851955  44.4512341
   9.9514034  47.2480981  32.4398233  10.8844707  47.1826543  32.6431108
   9.8637247  48.0837248  31.9812766  12.5802051  46.5646852  29.4002181
  12.5015682  46.2306715  30.2937938  13.4011717  47.0568620  29.3993653
  15.2780242  39.4308591  42.6078499  15.2456562  38.4924592  42.7938183
  15.8880865  39.5092628  41.8744324   7.1163573  38.3004644  28.6505703
   8.0622677  38.1710852  28.7194121   6.7377818  37.5619306  29.1275131
  15.4274730  36.2219634  42.6536782  14.9113779  35.4378091  42.4666711
  16.3114679  35.8938351  42.8183302  13.0885457  29.9660650  38.6132595
  12.8910278  29.6575738  39.4975927  13.6985163  30.6922289  38.7430525
  21.0956792  40.4924598  41.7484536  21.8260180  40.2309886  42.3092239
  20.4863737  39.7553320  41.7886604  19.1772089  38.6332460  42.3458987
  18.4505252  38.4988425  41.7375479  18.7619376  38.9409289  43.1515705
   7.0002265  42.3522390  50.1106360   7.9205275  42.5300989  50.3046407
   6.9651848  41.4078435  49.9586059   5.3006490  36.2254620  28.5860588
   4.3937945  35.9287733  28.6623302   5.5782471  35.9284438  27.7194875
   6.9168556  30.7691510  34.7404830   6.1069284  30.4238595  35.1160076
   7.6052972  30.4599054  35.3292441   8.8459104  29.8469557  36.3629126
   9.3990142  30.2665010  37.0219149   9.0829190  28.9205305  36.4052082
   4.8692203  35.8356631  52.1431890   4.7688930  36.7850987  52.0743981
   4.6513745  35.5074869  51.2707960   4.0705274  33.0841556  28.7272568
   4.9324438  33.4096454  28.9868385   4.2555619  32.2973051  28.2145633
  12.2237911  31.9570082  35.8707791  11.6436580  32.6154886  35.4885843
  11.9573844  31.1347427  35.4595208  10.6741477  31.3575140  38.0729111
  11.1741256  31.4691674  37.2643430  11.3177085  31.0536193  38.7129919
   4.7323473  39.2653769  50.9596952   4.2490555  40.0654129  51.1660841
   4.8184412  39.2761714  50.0064396   0.6596811  43.1558304  42.9965386
   1.6140064  43.1242246  42.9295317   0.4609334  42.6948928  43.8115612
   1.2496193  41.7259420  45.5636183   2.0689082  42.2203499  45.5871021
   1.5233000  40.8091388  45.5353751  11.0062789  34.1170172  34.9264139
  10.1188644  34.4019823  34.7084334  11.4216778  33.9563936  34.0791416
  14.3577325  34.1416693  38.6418478  15.1337715  34.6313146  38.9143095
  13.6325459  34.5674748  39.0990348  16.7949884  34.8544313  39.6992419
  17.3894375  34.6140049  38.9885727  16.8676467  34.1351443  40.3265955
  10.1506002  43.8814847  29.0212159  10.8541853  44.0864850  29.6369814
   9.4268651  44.4491609  29.2861242  10.9803813  39.6324708  35.1414429
  10.9239014  40.0893260  34.3022061  11.5332155  38.8715393  34.9637272
  14.7908619  35.4214440  35.9664548  14.5345553  35.0211076  36.7972756
  14.1661487  36.1358234  35.8414688  19.1020956  38.1610513  38.4735840
  18.5420514  38.2303703  39.2467402  18.4964460  37.9851498  37.7535336
   2.1716165  49.5947241  40.2254026   2.0548549  50.5392673  40.1232716
   1.3508612  49.2920802  40.6139825  12.0592700  44.3197376  31.0710619
  12.8938304  43.8878575  30.8888094  11.8977043  44.1479390  31.9987513
  11.7138592  40.8229490  32.4366958  11.6587396  40.6573761  31.4955402
  11.0884647  41.5305522  32.5929148   9.0284499  43.1278401  51.7620521
   9.8975659  43.3019054  51.4007156   8.5491251  43.9472818  51.6396250
   5.0234717  30.3237599  32.0152277   5.0113387  31.2679439  32.1720547
   5.9158139  30.1407744  31.7211738   3.1970679  50.2475502  43.4409955
   4.0997926  50.2799113  43.7576450   2.9708049  49.3175953  43.4556290
   4.9524281  49.0006489  40.1020033   4.0019912  49.0008351  39.9884406
   5.2556768  48.2539224  39.5856068   8.8386837  26.9180375  36.2698213
   8.0719233  26.3638862  36.4154896   9.2497542  26.9902244  37.1312365
  20.6876975  54.8367027  41.1665796  21.3255385  54.7173775  40.4629136
  20.5697818  55.7847871  41.2253748  17.4966681  54.7894455  41.1027320
  17.1585193  54.6735520  40.2147855  18.3656449  54.3885621  41.0828326
  13.3553497  56.6429932  37.0924211  12.7918362  56.5519869  36.3240499
  13.2405892  55.8229836  37.5726704  17.9786464  55.9429307  47.0613526
  17.9675105  55.5482105  46.1894030  18.1407104  55.2095380  47.6547297
  10.9017929  58.1381124  39.9308432  11.6939221  57.7971948  39.5154731
  11.1414579  58.2476099  40.8510585  18.9353056  60.3100900  32.4038676
  18.2841035  60.8954980  32.0172690  19.7297418  60.8407095  32.4633714
  12.8608683  57.3990037  32.8025811  13.6339559  56.8519024  32.6638686
  13.2134082  58.2634286  33.0140272  14.6993725  58.7266419  46.0092710
  14.4083591  59.6312050  45.8939376  15.3350710  58.7682947  46.7236779
  15.6249932  56.1043268  42.5994069  16.2213504  55.8799290  41.8851032
  15.6824904  55.3628013  43.2019517  15.1974961  53.5582703  30.4344260
  15.4500481  53.0364224  29.6727723  14.2599520  53.3948848  30.5370944
  20.2418243  52.5618481  38.2419004  21.0281333  52.1437904  37.8909421
  20.5056948  53.4664573  38.4100652  20.4128321  57.9991332  32.9407660
  19.7774154  58.0725958  33.6528565  20.0825727  58.5884930  32.2626740
  25.6426671  52.4993714  39.1451982  26.3751842  51.9292931  39.3789812
  24.8866026  52.1115315  39.5858488  14.9171249  55.4610809  32.6368635
  14.8007507  54.7855712  33.3049720  15.0273509  54.9743183  31.8200788
  17.2602790  54.9220956  36.3415325  16.8960997  54.3951577  37.0528246
  18.1169906  54.5319425  36.1681810  23.1652091  46.2115289  43.6046591
  22.8335416  47.0810700  43.3807806  22.5697704  45.8951573  44.2840621
  16.9008277  49.9510856  31.3376673  17.0682680  50.8191092  31.7047144
  16.7105446  50.1138137  30.4137962  19.6583610  58.4127835  43.0042504
  19.3584333  59.3152873  42.8958311  19.3134670  58.1460018  43.8563656
  13.1096092  54.8641631  39.0379208  12.1846588  54.7317845  39.2456900
  13.3580505  55.6435851  39.5349150  23.0580754  50.9310375  40.6839941
  22.1497632  50.8625783  40.3898702  23.0068350  51.4082320  41.5121766
  16.8797498  52.4068513  32.3223340  16.7597123  52.8525564  33.1608820
  16.1850086  52.7553831  31.7636878  10.4704903  54.5074905  39.8722997
  10.5997284  54.7609384  40.7862409   9.7902354  55.1002613  39.5527652
  14.6404390  65.1772155  35.9713471  14.5628420  66.1279980  36.0501952
  14.0366034  64.8318027  36.6288398  17.1321620  52.3500020  48.6274838
  16.3554954  52.9093940  48.6177703  17.7712183  52.8356803  49.1489708
  24.9242401  49.1326813  42.4617815  24.2816781  49.4259346  41.8157609
  24.4197329  49.0179733  43.2671011  22.5782564  52.8789986  33.1503674
  23.4900420  53.1117373  32.9751372  22.0692211  53.4627031  32.5878753
  15.3867992  55.1585474  48.1892805  16.1282677  55.6970518  47.9127629
  14.6804978  55.7851762  48.3464357  20.8623332  57.3014614  46.7864967
  21.2706688  56.8597025  46.0419599  20.1400593  56.7267242  47.0399159
  17.2154402  52.2387221  44.1598524  18.0615597  52.6626634  44.3033173
  17.1553040  51.5820845  44.8537087  21.1852147  57.8615805  40.5417255
  20.5561009  58.0261519  39.8393323  20.7977809  58.2757414  41.3128220
  25.0641378  58.7970243  37.8961619  24.3792417  59.1769144  37.3458653
  25.1485228  59.4065569  38.6293567  20.3653847  49.8991589  45.8179697
  20.1214779  50.6533650  45.2813973  20.6413778  50.2776937  46.6526944
  22.3192310  56.4430202  44.4956963  22.5309205  57.0861962  43.8191344
  22.2722058  55.6092518  44.0278893  19.9218539  49.0548022  41.3993535
  19.0603018  49.3529276  41.6910272  19.9480974  49.2718421  40.4674568
  16.7380108  57.5990213  37.8067341  17.2018454  57.8777916  37.0171963
  16.4736907  56.6973657  37.6240431  13.6304190  57.1461694  40.7447104
  14.2005547  57.5748963  40.1064588  14.2212301  56.8644279  41.4431290
  15.6748995  53.7213365  34.6156906  16.3773038  54.1734409  35.0830832
  15.3429623  53.0797184  35.2436799  14.1229356  52.3125122  48.9908115
  13.4928017  52.9941403  49.2243512  14.0165444  52.2008203  48.0461253
   9.4174328  51.9796918  39.9174039   8.6273382  52.2354446  39.4414150
   9.9085576  52.7945256  40.0226080  23.4338138  59.3202157  42.6679320
  24.2555582  58.9182344  42.3862002  23.4300541  59.2170391  43.6195436
  11.3689074  52.3441497  36.8757516  10.5720237  52.4560191  37.3941012
  11.1414666  52.6828149  36.0098407  17.1994741  58.8686200  44.8240031
  17.2639174  59.3306608  45.6598202  16.4905665  58.2383565  44.9522340
   7.7012031  52.2327408  42.3489030   7.9520070  53.1174418  42.6146606
   8.2371580  52.0532010  41.5764122  16.9142759  60.5354308  34.6919011
  16.7788434  61.3805844  35.1203859  17.4552572  60.7373585  33.9284945
  13.4010099  46.6145888  51.3533366  13.0077044  46.0612086  52.0281010
  14.2176239  46.9256466  51.7439884  10.3672157  58.0529746  35.2646936
  10.8796677  58.8472996  35.4152501  11.0194869  57.3556036  35.1980537
  12.1767041  61.1695502  37.3469689  12.3533670  62.0913467  37.1590673
  12.9723875  60.8553921  37.7764069  16.3178060  48.0303767  48.9453623
  17.0587773  48.6310920  48.8658085  16.5495983  47.2881405  48.3871665
  11.4619398  53.2160134  47.2231852  11.3472913  52.3145391  47.5238951
  10.6063916  53.4623831  46.8716669  18.5411236  61.1577874  48.8219353
  18.0975090  60.3714253  48.5040258  19.2028449  61.3457025  48.1563244
  13.2998357  62.6873676  43.3480032  13.8505782  62.5590739  42.5757025
  12.4609833  62.9868565  42.9974924  20.6392474  61.4380674  46.8500754
  20.6210949  62.2589555  46.3581023  21.5612394  61.3134750  47.0750895
  17.0965528  58.9524804  47.6924263  17.6293865  58.1913092  47.4623571
  16.5679609  58.6598456  48.4348417  20.2635223  44.0584870  43.2217904
  19.9199492  44.9486511  43.1457015  20.6314185  43.8686527  42.3587489
   8.3321073  56.3818400  36.0406507   9.1696295  56.7915409  35.8240214
   8.5099341  55.4417842  36.0106700  20.2285505  54.0493481  31.7290340
  19.7132129  54.8198085  31.9678727  19.9562814  53.3758617  32.3523401
  17.8132616  48.8943182  36.7875578  16.9574213  48.5050032  36.6081217
  18.2259568  48.9735142  35.9275363  19.3431763  46.4289525  41.1867138
  18.8396559  46.3919660  40.3734943  19.6362370  47.3382268  41.2463794
  15.5874649  46.5128255  40.1933319  16.4527646  46.3171063  39.8339209
  15.6552158  46.2838606  41.1202676  25.2019780  56.8025835  33.6643513
  24.4249222  56.4636995  33.2198675  25.8811261  56.8078459  32.9898478
  20.0171809  51.9220573  33.5550121  19.7121944  52.2366722  34.4060264
  20.9702251  52.0001993  33.5977454  18.4618240  58.0810796  35.2043075
  17.9339602  57.3463556  34.8916312  17.9605743  58.8585473  34.9583043
  23.4411086  56.2759817  40.3210121  22.7834761  56.9659078  40.4090250
  24.2451486  56.6656249  40.6644107  13.1936968  48.7430463  37.5649686
  13.7680720  48.5205644  36.8322879  13.7807950  48.8119157  38.3178287
  22.2516545  54.6304189  38.3714063  22.7648427  55.2634181  38.8735772
  22.9017769  54.0305385  38.0057423  13.5206555  50.7734924  31.5845571
  12.6843867  51.1109610  31.9054846  13.3811325  50.6383903  30.6472708
  15.4959636  45.6171711  36.2924756  14.8424048  45.3020729  35.6681370
  15.4540110  44.9947452  37.0184579  16.6070841  55.8991007  28.2078048
  15.6997902  55.6680260  28.4069197  17.1041873  55.1028626  28.3952029
  19.5138919  64.6088514  31.1274734  18.8400618  64.9120210  31.7359692
  19.9004741  65.4117594  30.7780191  18.7297376  52.1053645  40.6172403
  17.8119937  52.3268592  40.4594091  19.1457520  52.1799955  39.7584111
  19.5132424  53.5045061  35.7475084  20.2604243  54.0166458  35.4382206
  19.7824013  53.1829113  36.6079477  17.7859074  56.0003601  32.7302038
  16.8770293  55.7162634  32.8274508  17.8154158  56.4202680  31.8705345
  23.0178341  59.6110191  36.4993205  22.5640669  58.7701101  36.5558396
  22.3872308  60.2471589  36.8367986  21.9611261  50.5402177  37.7293873
  21.2234018  50.0279563  38.0604115  22.2138035  50.1002559  36.9177150
  21.4611281  61.4486688  37.4343024  21.7534255  62.0091745  36.7155389
  21.9709901  61.7415249  38.1896183  22.0622888  43.3178429  38.3235642
  22.3681765  42.4575792  38.0361557  22.7875493  43.9096049  38.1234636
   8.3547244  53.7209115  36.7117240   8.1571644  53.1278476  35.9868307
   7.7993908  53.4161326  37.4293179  16.3343968  53.6132222  38.8311833
  16.3892578  52.6606058  38.7554310  15.5235170  53.7691661  39.3153132
  17.4835162  57.5412345  30.0690116  17.0454592  56.8248204  29.6095754
  18.2245603  57.7688460  29.5075208  14.2736328  52.2309282  36.5902212
  13.4604194  52.5303452  36.9967404  14.7695322  51.8364970  37.3076694
  16.4244906  62.2267039  38.5236477  16.3821085  62.4527885  37.5945009
  17.3407605  61.9930413  38.6722278  19.8710540  52.6951106  45.4217106
  20.2259927  52.9222579  46.2811572  20.5182671  53.0269483  44.7994361
  25.6008277  55.8169542  36.1266435  25.4626175  56.0071138  35.1987624
  25.2444495  56.5788925  36.5834486  13.7650403  49.8027637  42.2063447
  14.4049782  49.6616396  41.5086410  12.9327933  49.5162151  41.8302049
  25.6277656  57.8846069  41.1377706  26.0614163  57.7921358  41.9860760
  26.3409237  57.8603570  40.4997722  14.5410707  59.1030068  38.3198439
  15.3351305  58.6080388  38.1181014  13.8302399  58.5747931  37.9566145
  19.3605551  61.4848163  42.6710807  19.4142573  62.0539100  43.4388523
  18.4920333  61.6550048  42.3064844  10.8493470  53.2473149  34.3958192
   9.9191058  53.1857605  34.6128154  10.9450942  52.7249102  33.5994833
  10.7679019  49.7727962  36.9836434  11.0285836  50.6873295  36.8745594
  11.5896192  49.3052405  37.1333047  12.2403945  51.1865719  44.1535258
  12.9126998  50.9783082  43.5047907  11.4133731  50.9887805  43.7140491
  26.4893206  57.9269770  43.6710592  26.6829096  58.8315580  43.9169867
  26.3893824  57.4677189  44.5049177  18.1429517  47.8127660  46.1700919
  17.4957432  48.5117610  46.0765396  18.9130532  48.2463804  46.5377167
  21.5508314  58.0776512  49.2451472  21.3993821  57.8487064  48.3281556
  21.5412994  59.0347114  49.2582817  18.3193651  55.6508425  44.2297739
  19.2485711  55.8019585  44.0566706  17.8984681  55.7392446  43.3746385
  17.1181983  59.6759090  41.9996277  16.9793068  59.3077874  42.8722215
  16.3296579  60.1906729  41.8280234  17.7130135  64.7768186  33.3421813
  17.8881890  64.3056229  34.1567436  17.0262923  65.4033952  33.5703074
  18.6687198  59.0540692  39.3885114  18.3337030  59.0141462  40.2842764
  18.1691143  58.3885408  38.9155525  12.6431442  54.4608322  44.9137695
  12.5051240  53.7288561  45.5149235  13.5536365  54.3717222  44.6321883
  21.6046389  56.3996727  29.6622174  20.9875560  55.6743555  29.5655227
  21.1362878  57.1606087  29.3189248  15.2713742  54.1728282  44.4021375
  15.9813361  53.5321474  44.3607994  15.2283051  54.4241177  45.3247556
  23.2600521  61.1095635  47.3227954  23.2013067  60.4254855  46.6558537
  23.6620039  61.8514625  46.8708580  13.9842676  51.1593500  46.2217015
  13.4480033  50.7084238  46.8738611  13.3959385  51.2939408  45.4787479
  12.2791220  67.9257549  40.1161673  12.5187818  68.5576073  40.7940692
  11.4360416  67.5745589  40.4027032  13.3944935  50.6182151  28.7843478
  12.5174402  50.4970952  28.4205725  13.8702688  49.8268229  28.5322367
  23.2617928  59.0735219  45.5541934  22.3744707  58.7361141  45.6768333
  23.8316479  58.3418250  45.7910699   4.9147076  55.4059311  38.8784985
   5.6018115  55.0921041  38.2906001   4.7595204  56.3100675  38.6052237
   9.7181798  50.2949507  43.3070009   9.6339986  49.6875177  42.5720419
   8.8964504  50.7858526  43.3079505  16.7919082  63.7336671  42.5203177
  16.7189253  64.5391643  43.0322482  16.3496475  63.9328637  41.6951199
  16.5808861  62.9708441  36.0305999  15.7976383  63.5130122  36.1244223
  17.2801607  63.4882421  36.4300240  19.8905512  48.7803071  38.6740204
  20.3874211  48.0273033  38.3541274  19.1192493  48.8167387  38.1083413
  27.7435269  54.4843436  40.3158496  27.7325145  55.3668152  39.9452429
  26.8752648  54.1314987  40.1213033  19.2517765  63.6323505  44.6761336
  19.9645738  64.2670970  44.6037237  18.7607794  63.7287371  43.8601338
  20.9735292  57.5374758  36.2478628  20.0391571  57.6576220  36.0783332
  21.1511961  56.6347225  35.9838637  16.4740480  50.9220454  38.4011889
  16.1038268  50.3691494  39.0892794  16.9699573  50.3178587  37.8486889
  24.3607844  53.3792077  36.7828662  24.8268296  54.2120069  36.7088964
  24.8115344  52.9137059  37.4873920  14.3029679  61.3817949  45.4966907
  15.0039138  62.0154432  45.6496301  13.8324794  61.7232680  44.7362546
  22.4284075  59.7235899  33.7814814  22.7043919  59.6092493  34.6908688
  21.5588573  59.3253383  33.7426987  22.3324506  45.7472664  40.8219563
  21.4187586  45.9776891  40.9901770  22.7617608  45.8311108  41.6733595
  22.1030965  53.9362556  43.3219457  21.4502415  54.1838464  42.6671910
  22.4811345  53.1226694  42.9881934  19.0638139  63.9722249  37.4247627
  19.2460533  63.1543905  37.8875380  19.8871125  64.1889942  36.9872517
  19.3980304  62.8990435  34.6862676  19.9268071  62.3882889  34.0732838
  19.6608524  62.5832965  35.5508209  18.1518538  54.6782367  49.8085494
  17.4759175  54.5776497  50.4787869  18.9746172  54.5221581  50.2721491
   9.8997397  60.9154304  42.4298009  10.4850834  60.1697992  42.5625914
   9.7022235  61.2258261  43.3134673  12.7536052  63.9505551  37.4460452
  12.0846427  64.4351679  36.9624492  12.6148922  64.1974772  38.3603830
   4.4915052  53.4859904  41.1502453   4.5299151  52.9523495  41.9439571
   3.9855344  52.9595110  40.5313430  16.8941321  65.9849295  44.0443110
  17.4459629  66.1480916  44.8092195  17.2347514  66.5753733  43.3723135
  11.8705814  48.3324445  44.6464995  11.9347140  49.1939275  44.2342393
  11.8072934  47.7198446  43.9137353  11.3458086  50.4047577  48.2938029
  11.9730125  50.0224654  48.9075553  10.4886005  50.1861779  48.6593722
  21.7452195  60.8110552  49.8991765  22.2892099  61.4240511  49.4046719
  21.1639040  61.3690131  50.4158778   8.1223629  52.2124006  34.2256384
   8.4177070  51.3034685  34.1723438   7.2211665  52.1911746  33.9037386
  20.0309708  63.9331270  41.0306792  19.9060847  63.1321010  40.5217738
  20.6888799  64.4277464  40.5420762  11.6517876  50.2880003  40.2083933
  10.9304462  50.9015971  40.0691406  12.4411132  50.8237768  40.1300578
  22.0944616  61.7340290  42.6586342  21.1474952  61.6145642  42.5864669
  22.4427389  60.8462788  42.7412604  14.4544190  47.6234429  46.4824584
  14.9778592  47.8696726  47.2450894  14.2356523  48.4554464  46.0627722
   9.8511471  49.8938104  34.3495709   9.5224177  49.0135483  34.1670815
  10.2050841  49.8385773  35.2372098  19.0991050  61.5293007  38.8590695
  18.9516012  60.6009714  39.0398265  19.9244543  61.5513097  38.3747770
  12.9653294  50.1811074  34.7171187  13.3049366  50.7096995  33.9949795
  13.4125414  50.5191480  35.4929753  22.7025172  62.3521565  39.9455567
  23.6271719  62.1464427  39.8080018  22.5340475  62.1037967  40.8544909
  15.6596735  48.5648124  44.1674255  15.3193555  47.7655937  44.5694935
  14.9535741  48.8649835  43.5951088  16.3113207  45.6497437  42.6201578
  17.1339276  45.1757915  42.4980468  16.5551270  46.4287921  43.1200264
  14.9521441  48.6785695  32.9164479  15.6729804  49.0566948  32.4128196
  14.3286745  49.3974572  33.0199457  19.0952564  49.3830844  33.8522812
  19.3116178  50.2655482  33.5511640  18.6146631  48.9917058  33.1228454
  13.8351785  52.3416557  40.4293556  13.6896366  52.6556861  41.3217838
  13.3576989  52.9601458  39.8764455  15.6948168  49.3319105  40.4774446
  15.6809737  48.4360199  40.1406744  16.4120596  49.3389769  41.1112732
  17.5474299  49.7656446  42.5227573  17.2892077  50.6873516  42.5211904
  17.0159339  49.3686880  43.2128038  22.4920488  62.8707233  35.3017659
  22.6657365  62.3053655  34.5491511  22.9849379  63.6708128  35.1197149
   8.3097448  54.8821902  43.3681218   7.7650916  55.6581710  43.5001492
   9.1876797  55.2292706  43.2100339  15.0985064  48.2133486  35.7462016
  15.2200975  47.2850132  35.9452904  14.8087107  48.2272172  34.8340332
  17.9676255  45.8988396  38.8828736  17.9897951  45.9627729  37.9280716
  18.3844314  45.0592905  39.0769242  28.3459879  55.6343656  36.9207959
  28.7891025  54.8850981  36.5227082  27.4686389  55.6253792  36.5381691
  23.4795660  62.1873997  32.4014557  24.1746565  62.8080690  32.6201872
  23.8218810  61.3369348  32.6766935   9.0963469  54.0091798  46.2611374
   8.3545205  54.1574433  46.8476005   8.7756214  54.2700064  45.3978124
  25.3787083  59.6373703  33.9301888  25.9038407  59.9760975  33.2051208
  25.2909436  58.7020718  33.7465022  17.0407132  63.5507776  46.0591764
  17.3494258  63.3056923  46.9314464  17.8382614  63.7554415  45.5710635
  17.0627744  65.7045686  38.2897141  16.6232734  65.2122065  38.9829998
  17.8135861  65.1618654  38.0489216   9.5420083  61.8957227  38.2921769
  10.3678103  61.5960999  37.9120413   9.1914135  61.1264849  38.7411558
  14.5101616  61.2483695  40.3619443  13.8881626  60.5854400  40.0621671
  15.1806483  61.2744827  39.6793090   7.7428688  59.8143553  39.2510703
   6.9060596  59.3865728  39.0694704   7.7152334  60.0075997  40.1881494
  14.5826144  49.7265483  49.9551949  14.6314299  50.6027606  49.5729718
  15.1248658  49.1842876  49.3823592  25.0680989  60.2706606  49.2353086
  24.2776533  60.2530745  48.6957585  24.8314344  60.8094900  49.9902122
  25.1878864  57.1199073  46.5485814  25.2376869  56.9549080  47.4901337
  25.0792788  56.2526332  46.1583695  14.0715123  59.7987618  33.8377903
  14.2203244  60.4823083  33.1844576  14.8781567  59.7792708  34.3527359
  22.4782627  53.1030001  47.8645121  23.3792490  52.9636466  47.5729119
  22.5530601  53.2684456  48.8043298  16.8125432  50.4796856  46.7098307
  15.9428742  50.7730422  46.4380896  17.0484913  51.0637301  47.4305571
  26.6897061  59.5396014  46.7927836  26.3981870  59.9025995  47.6291297
  26.0769193  58.8263023  46.6141168  27.8892744  57.1048894  39.3130406
  28.7239635  57.5438698  39.4767966  28.0251872  56.6287547  38.4938652
  24.9384250  54.6628629  45.2607894  25.4138371  54.8556275  44.4526745
  24.0149815  54.7187815  45.0151278  11.8267756  55.8252796  34.8438972
  11.5813798  54.9215126  35.0419182  11.9963671  55.8269947  33.9018450
  19.5164466  46.6976472  44.2263728  20.0346410  47.4337499  43.9010216
  19.1619599  47.0040466  45.0610487  11.0963404  51.5581154  32.3425134
  10.4032649  51.6325509  31.6865170  10.8515156  50.7941497  32.8646651
  19.7677060  43.1176755  39.7464624  20.0478814  42.4499944  40.3725051
  20.5527667  43.3105851  39.2339288  17.5710529  62.2935749  31.3089651
  16.9984496  62.9125936  30.8560123  18.1443322  62.8435111  31.8429573
  23.6385919  51.5394389  43.4936199  24.5903341  51.6392487  43.5148424
  23.4689369  50.7472658  44.0034284  21.6600298  48.6249972  43.6795600
  21.0650230  48.9054985  42.9842089  21.3749995  49.1143873  44.4512341
  20.7907788  62.5772899  32.4398233  21.7238462  62.5118461  32.6431108
  20.7031001  63.4129166  31.9812766  23.4195805  61.8938769  29.4002181
  23.3409437  61.5598633  30.2937938  24.2405472  62.3860537  29.3993653
  26.1173996  54.7600509  42.6078499  26.0850316  53.8216509  42.7938183
  26.7274620  54.8384545  41.8744324  17.9557327  53.6296562  28.6505703
  18.9016432  53.5002770  28.7194121  17.5771572  52.8911224  29.1275131
  26.2668485  51.5511552  42.6536782  25.7507533  50.7670009  42.4666711
  27.1508433  51.2230269  42.8183302  23.9279212  45.2952568  38.6132595
  23.7304033  44.9867656  39.4975927  24.5378917  46.0214207  38.7430525
  30.0165843  53.9624378  42.3458987  29.2899007  53.8280343  41.7375479
  29.6013130  54.2701207  43.1515705  17.8396020  57.6814308  50.1106360
  18.7599029  57.8592907  50.3046407  17.8045603  56.7370353  49.9586059
  16.1400244  51.5546538  28.5860588  15.2331700  51.2579651  28.6623302
  16.4176225  51.2576356  27.7194875   7.0578185  52.8752901  39.0359635
   6.7380969  52.0218210  38.7434009   6.5111613  53.0901480  39.7917602
  10.8358092  55.5915342  42.7529141  11.0544102  56.5232450  42.7717175
  11.2483866  55.2323317  43.5383945  17.7562310  46.0983428  34.7404830
  16.9463038  45.7530513  35.1160076  18.4446727  45.7890971  35.3292441
  19.6852858  45.1761475  36.3629126  20.2383897  45.5956928  37.0219149
  19.9222945  44.2497223  36.4052082  15.7085958  51.1648548  52.1431890
  15.6082684  52.1142905  52.0743981  15.4907500  50.8366787  51.2707960
  14.9099029  48.4133473  28.7272568  15.7718193  48.7388372  28.9868385
  15.0949373  47.6264969  28.2145633   6.9266445  56.4955813  41.0052756
   6.2329916  56.0809766  40.4922711   7.6739436  56.5376349  40.4086175
  23.0631665  47.2862000  35.8707791  22.4830334  47.9446804  35.4885843
  22.7967598  46.4639344  35.4595208  21.5135232  46.6867057  38.0729111
  22.0135010  46.7983592  37.2643430  22.1570840  46.3828110  38.7129919
  15.5717228  54.5945687  50.9596952  15.0884309  55.3946047  51.1660841
  15.6578167  54.6053632  50.0064396   8.8403187  56.4274067  38.8818771
   8.8173875  56.5261754  37.9300654   9.1503824  57.2739217  39.2035937
  11.4990565  58.4850222  42.9965386  12.4533819  58.4534164  42.9295317
  11.3003089  58.0240845  43.8115612  12.0889947  57.0551338  45.5636183
  12.9082836  57.5495416  45.5871021  12.3626755  56.1383306  45.5353751
  21.8456543  49.4462090  34.9264139  20.9582398  49.7311741  34.7084334
  22.2610533  49.2855853  34.0791416  25.1971080  49.4708611  38.6418478
  25.9731470  49.9605064  38.9143095  24.4719214  49.8966665  39.0990348
  27.6343638  50.1836230  39.6992419  28.2288129  49.9431966  38.9885727
  27.7070222  49.4643361  40.3265955   9.8540794  64.0269841  40.0135584
   9.7195262  63.2670242  39.4473582   9.4372856  64.7510741  39.5464372
  20.9899757  59.2106765  29.0212159  21.6935607  59.4156767  29.6369814
  20.2662406  59.7783527  29.2861242  21.8197567  54.9616626  35.1414429
  21.7632769  55.4185177  34.3022061  22.3725910  54.2007311  34.9637272
  25.6302373  50.7506358  35.9664548  25.3739307  50.3502994  36.7972756
  25.0055241  51.4650152  35.8414688  29.9414711  53.4902431  38.4735840
  29.3814269  53.5595620  39.2467402  29.3358214  53.3143416  37.7535336
  13.0109920  64.9239158  40.2254026  12.8942304  65.8684591  40.1232716
  12.1902366  64.6212720  40.6139825  22.8986454  59.6489294  31.0710619
  23.7332058  59.2170492  30.8888094  22.7370797  59.4771308  31.9987513
  22.5532346  56.1521407  32.4366958  22.4981150  55.9865679  31.4955402
  21.9278402  56.8597440  32.5929148   7.3424861  51.3889472  46.2628380
   7.9883725  50.8788426  46.7515606   7.1342013  52.1258153  46.8371806
  19.8678254  58.4570319  51.7620521  20.7369413  58.6310971  51.4007156
  19.3885005  59.2764736  51.6396250  15.8628472  45.6529516  32.0152277
  15.8507142  46.5971356  32.1720547  16.7551894  45.4699662  31.7211738
  14.0364434  65.5767420  43.4409955  14.9391681  65.6091030  43.7576450
  13.8101804  64.6467871  43.4556290  15.7918036  64.3298407  40.1020033
  14.8413667  64.3300268  39.9884406  16.0950522  63.5831141  39.5856068
  19.6780591  42.2472293  36.2698213  18.9112987  41.6930780  36.4154896
  20.0891296  42.3194162  37.1312365  11.6822352  48.5357089  50.3603395
  12.5453814  48.1793894  50.5706719  11.1087763  48.1970984  51.0478799
  31.5270729  70.1658945  41.1665796  32.1649139  70.0465692  40.4629136
  31.4091572  71.1139789  41.2253748  28.3360436  70.1186373  41.1027320
  27.9978947  70.0027438  40.2147855  29.2050204  69.7177538  41.0828326
  24.1947251  71.9721850  37.0924211  23.6312117  71.8811787  36.3240499
  24.0799646  71.1521754  37.5726704  28.8180219  71.2721225  47.0613526
  28.8068859  70.8774023  46.1894030  28.9800858  70.5387298  47.6547297
  21.7411683  73.4673041  39.9308432  22.5332975  73.1263866  39.5154731
  21.9808333  73.5768016  40.8510585  29.7746810  75.6392817  32.4038676
  29.1234790  76.2246898  32.0172690  30.5691173  76.1699012  32.4633714
  23.7002437  72.7281954  32.8025811  24.4733313  72.1810942  32.6638686
  24.0527836  73.5926204  33.0140272  25.5387480  74.0558337  46.0092710
  25.2477346  74.9603968  45.8939376  26.1744464  74.0974864  46.7236779
  26.4643687  71.4335185  42.5994069  27.0607259  71.2091208  41.8851032
  26.5218658  70.6919931  43.2019517  26.0368715  68.8874621  30.4344260
  26.2894236  68.3656142  29.6727723  25.0993274  68.7240766  30.5370944
  31.0811998  67.8910399  38.2419004  31.8675087  67.4729822  37.8909421
  31.3450702  68.7956491  38.4100652  31.2522075  73.3283249  32.9407660
  30.6167908  73.4017876  33.6528565  30.9219482  73.9176848  32.2626740
  36.4820425  67.8285632  39.1451982  37.2145597  67.2584849  39.3789812
  35.7259781  67.4407233  39.5858488  25.7565004  70.7902727  32.6368635
  25.6401262  70.1147630  33.3049720  25.8667264  70.3035100  31.8200788
  28.0996545  70.2512874  36.3415325  27.7354752  69.7243495  37.0528246
  28.9563661  69.8611343  36.1681810  34.0045845  61.5407206  43.6046591
  33.6729170  62.4102617  43.3807806  33.4091459  61.2243490  44.2840621
  27.7402032  65.2802773  31.3376673  27.9076434  66.1483010  31.7047144
  27.5499201  65.4430055  30.4137962  30.4977365  73.7419752  43.0042504
  30.1978088  74.6444791  42.8958311  30.1528424  73.4751935  43.8563656
  23.9489846  70.1933549  39.0379208  23.0240343  70.0609763  39.2456900
  24.1974260  70.9727768  39.5349150  33.8974509  66.2602292  40.6839941
  32.9891386  66.1917701  40.3898702  33.8462104  66.7374237  41.5121766
  27.7191253  67.7360431  32.3223340  27.5990878  68.1817482  33.1608820
  27.0243841  68.0845748  31.7636878  21.3098657  69.8366823  39.8722997
  21.4391039  70.0901302  40.7862409  20.6296109  70.4294531  39.5527652
  27.9715374  67.6791938  48.6274838  27.1948709  68.2385858  48.6177703
  28.6105938  68.1648721  49.1489708  35.7636155  64.4618731  42.4617815
  35.1210535  64.7551264  41.8157609  35.2591084  64.3471651  43.2671011
  33.4176319  68.2081904  33.1503674  34.3294175  68.4409291  32.9751372
  32.9085966  68.7918948  32.5878753  26.2261747  70.4877391  48.1892805
  26.9676431  71.0262435  47.9127629  25.5198732  71.1143680  48.3464357
  31.7017086  72.6306532  46.7864967  32.1100442  72.1888942  46.0419599
  30.9794348  72.0559159  47.0399159  28.0548156  67.5679139  44.1598524
  28.9009352  67.9918552  44.3033173  27.9946794  66.9112763  44.8537087
  32.0245901  73.1907722  40.5417255  31.3954763  73.3553437  39.8393323
  31.6371563  73.6049332  41.3128220  35.9035133  74.1262160  37.8961619
  35.2186171  74.5061062  37.3458653  35.9878982  74.7357487  38.6293567
  31.2047602  65.2283507  45.8179697  30.9608534  65.9825567  45.2813973
  31.4807532  65.6068855  46.6526944  33.1586065  71.7722119  44.4956963
  33.3702960  72.4153879  43.8191344  33.1115813  70.9384436  44.0278893
  30.7612294  64.3839940  41.3993535  29.8996773  64.6821194  41.6910272
  30.7874728  64.6010339  40.4674568  27.5773863  72.9282131  37.8067341
  28.0412208  73.2069834  37.0171963  27.3130661  72.0265575  37.6240431
  24.4697944  72.4753612  40.7447104  25.0399301  72.9040880  40.1064588
  25.0606056  72.1936197  41.4431290  26.5142749  69.0505283  34.6156906
  27.2166792  69.5026327  35.0830832  26.1823377  68.4089102  35.2436799
  24.9623111  67.6417040  48.9908115  24.3321771  68.3233320  49.2243512
  24.8559198  67.5300121  48.0461253  20.2568083  67.3088836  39.9174039
  19.4667137  67.5646364  39.4414150  20.7479330  68.1237173  40.0226080
  34.2731893  74.6494075  42.6679320  35.0949336  74.2474262  42.3862002
  34.2694295  74.5462309  43.6195436  22.2082828  67.6733415  36.8757516
  21.4113992  67.7852109  37.3941012  21.9808421  68.0120067  36.0098407
  28.0388496  74.1978118  44.8240031  28.1032928  74.6598525  45.6598202
  27.3299420  73.5675483  44.9522340  18.5405786  67.5619326  42.3489030
  18.7913824  68.4466336  42.6146606  19.0765334  67.3823928  41.5764122
  42.3637886  70.9932823  39.0164292  41.6101594  70.4240221  38.8608296
  42.4985427  70.9595488  39.9634926  27.7536514  75.8646226  34.6919011
  27.6182188  76.7097761  35.1203859  28.2946326  76.0665503  33.9284945
  24.2403853  61.9437805  51.3533366  23.8470799  61.3904004  52.0281010
  25.0569994  62.2548384  51.7439884  21.2065911  73.3821664  35.2646936
  21.7190432  74.1764914  35.4152501  21.8588624  72.6847954  35.1980537
  27.1571814  63.3595684  48.9453623  27.8981528  63.9602838  48.8658085
  27.3889737  62.6173322  48.3871665  22.3013152  68.5452052  47.2231852
  22.1866667  67.6437309  47.5238951  21.4457670  68.7915748  46.8716669
  29.3804990  76.4869792  48.8219353  28.9368844  75.7006171  48.5040258
  30.0422204  76.6748943  48.1563244  31.4786228  76.7672592  46.8500754
  31.4604703  77.5881473  46.3581023  32.4006148  76.6426667  47.0750895
  27.9359282  74.2816721  47.6924263  28.4687619  73.5205010  47.4623571
  27.4073363  73.9890373  48.4348417  31.1028977  59.3876787  43.2217904
  30.7593247  60.2778429  43.1457015  31.4707940  59.1978445  42.3587489
  19.1714828  71.7110318  36.0406507  20.0090050  72.1207326  35.8240214
  19.3493095  70.7709760  36.0106700  31.0679260  69.3785399  31.7290340
  30.5525883  70.1490003  31.9678727  30.7956568  68.7050535  32.3523401
  28.6526371  64.2235099  36.7875578  27.7967967  63.8341950  36.6081217
  29.0653323  64.3027060  35.9275363  30.1825518  61.7581443  41.1867138
  29.6790313  61.7211578  40.3734943  30.4756124  62.6674185  41.2463794
  26.4268403  61.8420172  40.1933319  27.2921400  61.6462981  39.8339209
  26.4945912  61.6130524  41.1202676  36.0413534  72.1317753  33.6643513
  35.2642977  71.7928913  33.2198675  36.7205015  72.1370376  32.9898478
  30.8565563  67.2512491  33.5550121  30.5515699  67.5658640  34.4060264
  31.8096005  67.3293910  33.5977454  29.3011995  73.4102714  35.2043075
  28.7733356  72.6755473  34.8916312  28.7999498  74.1877390  34.9583043
  34.2804841  71.6051734  40.3210121  33.6228515  72.2950996  40.4090250
  35.0845240  71.9948166  40.6644107  24.0330723  64.0722380  37.5649686
  24.6074474  63.8497562  36.8322879  24.6201705  64.1411075  38.3178287
  33.0910300  69.9596107  38.3714063  33.6042181  70.5926099  38.8735772
  33.7411524  69.3597303  38.0057423  24.3600310  66.1026841  31.5845571
  23.5237622  66.4401528  31.9054846  24.2205079  65.9675821  30.6472708
  26.3353390  60.9463629  36.2924756  25.6817803  60.6312646  35.6681370
  26.2933864  60.3239370  37.0184579  27.4464595  71.2282924  28.2078048
  26.5391657  70.9972178  28.4069197  27.9435627  70.4320543  28.3952029
  29.5691131  67.4345563  40.6172403  28.6513692  67.6560510  40.4594091
  29.9851274  67.5091873  39.7584111  30.3526178  68.8336978  35.7475084
  31.0997997  69.3458376  35.4382206  30.6217768  68.5121031  36.6079477
  28.6252829  71.3295519  32.7302038  27.7164048  71.0454552  32.8274508
  28.6547912  71.7494598  31.8705345  33.8572096  74.9402109  36.4993205
  33.4034423  74.0993018  36.5558396  33.2266063  75.5763507  36.8367986
  32.8005016  65.8694095  37.7293873  32.0627772  65.3571481  38.0604115
  33.0531789  65.4294476  36.9177150  32.3005035  76.7778605  37.4343024
  32.5928010  77.3383662  36.7155389  32.8103656  77.0707166  38.1896183
  19.1940999  69.0501033  36.7117240  18.9965399  68.4570394  35.9868307
  18.6387663  68.7453243  37.4293179  27.1737723  68.9424140  38.8311833
  27.2286332  67.9897976  38.7554310  26.3628925  69.0983579  39.3153132
  28.3228916  72.8704263  30.0690116  27.8848346  72.1540122  29.6095754
  29.0639357  73.0980378  29.5075208  25.1130082  67.5601199  36.5902212
  24.2997948  67.8595370  36.9967404  25.6089077  67.1656888  37.3076694
  30.7104294  68.0243024  45.4217106  31.0653682  68.2514497  46.2811572
  31.3576425  68.3561401  44.7994361  36.4402031  71.1461460  36.1266435
  36.3019930  71.3363056  35.1987624  36.0838250  71.9080843  36.5834486
  24.6044157  65.1319555  42.2063447  25.2443537  64.9908314  41.5086410
  23.7721688  64.8454068  41.8302049  36.4671411  73.2137987  41.1377706
  36.9007917  73.1213276  41.9860760  37.1802991  73.1895487  40.4997722
  25.3804461  74.4321985  38.3198439  26.1745060  73.9372305  38.1181014
  24.6696154  73.9039848  37.9566145  30.1999306  76.8140081  42.6710807
  30.2536328  77.3831017  43.4388523  29.3314087  76.9841966  42.3064844
  21.6887225  68.5765067  34.3958192  20.7584813  68.5149523  34.6128154
  21.7844697  68.0541020  33.5994833  21.6072774  65.1019880  36.9836434
  21.8679591  66.0165213  36.8745594  22.4289946  64.6344322  37.1333047
  23.0797699  66.5157637  44.1535258  23.7520752  66.3074999  43.5047907
  22.2527486  66.3179723  43.7140491  37.3286960  73.2561687  43.6710592
  37.5222850  74.1607498  43.9169867  37.2287578  72.7969106  44.5049177
  28.9823271  63.1419578  46.1700919  28.3351186  63.8409528  46.0765396
  29.7524286  63.5755722  46.5377167  32.3902069  73.4068430  49.2451472
  32.2387575  73.1778982  48.3281556  32.3806748  74.3639032  49.2582817
  29.1587405  70.9800343  44.2297739  30.0879465  71.1311503  44.0566706
  28.7378435  71.0684364  43.3746385  27.9575737  75.0051007  41.9996277
  27.8186823  74.6369792  42.8722215  27.1690333  75.5198647  41.8280234
  29.5080952  74.3832610  39.3885114  29.1730785  74.3433380  40.2842764
  29.0084898  73.7177326  38.9155525  23.4825196  69.7900240  44.9137695
  23.3444994  69.0580479  45.5149235  24.3930120  69.7009140  44.6321883
  32.4440144  71.7288644  29.6622174  31.8269315  71.0035473  29.5655227
  31.9756632  72.4898005  29.3189248  26.1107497  69.5020199  44.4021375
  26.8207115  68.8613392  44.3607994  26.0676805  69.7533094  45.3247556
  34.0994276  76.4387553  47.3227954  34.0406822  75.7546773  46.6558537
  34.5013794  77.1806543  46.8708580  24.8236431  66.4885417  46.2217015
  24.2873788  66.0376156  46.8738611  24.2353139  66.6231326  45.4787479
  24.2338690  65.9474069  28.7843478  23.3568156  65.8262869  28.4205725
  24.7096443  65.1560147  28.5322367  34.1011683  74.4027137  45.5541934
  33.2138462  74.0653058  45.6768333  34.6710234  73.6710168  45.7910699
  15.7540830  70.7351228  38.8784985  16.4411870  70.4212958  38.2906001
  15.5988959  71.6392593  38.6052237  20.5575552  65.6241425  43.3070009
  20.4733741  65.0167095  42.5720419  19.7358259  66.1150443  43.3079505
  30.7299266  64.1094988  38.6740204  31.2267966  63.3564951  38.3541274
  29.9586248  64.1459305  38.1083413  38.5829023  69.8135354  40.3158496
  38.5718900  70.6960069  39.9452429  37.7146403  69.4606905  40.1213033
  31.8129047  72.8666676  36.2478628  30.8785325  72.9868138  36.0783332
  31.9905715  71.9639142  35.9838637  27.3134235  66.2512371  38.4011889
  26.9432022  65.6983412  39.0892794  27.8093327  65.6470505  37.8486889
  35.2001598  68.7083995  36.7828662  35.6662050  69.5411987  36.7088964
  35.6509099  68.2428977  37.4873920  33.2677829  75.0527816  33.7814814
  33.5437673  74.9384411  34.6908688  32.3982328  74.6545301  33.7426987
  33.1718261  61.0764582  40.8219563  32.2581341  61.3068809  40.9901770
  33.6011362  61.1603026  41.6733595  32.9424719  69.2654474  43.3219457
  32.2896170  69.5130381  42.6671910  33.3205099  68.4518612  42.9881934
  28.9912292  70.0074285  49.8085494  28.3152929  69.9068414  50.4787869
  29.8139926  69.8513499  50.2721491  15.3308806  68.8151822  41.1502453
  15.3692906  68.2815412  41.9439571  14.8249099  68.2887027  40.5313430
  22.7099568  63.6616362  44.6464995  22.7740895  64.5231193  44.2342393
  22.6466689  63.0490364  43.9137353  22.1851841  65.7339495  48.2938029
  22.8123880  65.3516572  48.9075553  21.3279760  65.5153697  48.6593722
  32.5845950  76.1402470  49.8991765  33.1285853  76.7532428  49.4046719
  32.0032794  76.6982048  50.4158778  18.9617384  67.5415924  34.2256384
  19.2570825  66.6326602  34.1723438  18.0605419  67.5203663  33.9037386
  22.4911631  65.6171920  40.2083933  21.7698216  66.2307888  40.0691406
  23.2804886  66.1529685  40.1300578  32.9338371  77.0632208  42.6586342
  31.9868706  76.9437559  42.5864669  33.2821144  76.1754706  42.7412604
  25.2937944  62.9526347  46.4824584  25.8172346  63.1988644  47.2450894
  25.0750277  63.7846382  46.0627722  20.6905225  65.2230022  34.3495709
  20.3617931  64.3427400  34.1670815  21.0444596  65.1677690  35.2372098
  29.9384804  76.8584924  38.8590695  29.7909767  75.9301632  39.0398265
  30.7638298  76.8805015  38.3747770  23.8047048  65.5102991  34.7171187
  24.1443121  66.0388913  33.9949795  24.2519169  65.8483397  35.4929753
  33.5418926  77.6813483  39.9455567  34.4665473  77.4756344  39.8080018
  33.3734229  77.4329884  40.8544909  26.4990489  63.8940042  44.1674255
  26.1587310  63.0947855  44.5694935  25.7929496  64.1941753  43.5951088
  27.1506961  60.9789355  42.6201578  27.9733030  60.5049833  42.4980468
  27.3945025  61.7579838  43.1200264  25.7915196  64.0077613  32.9164479
  26.5123558  64.3858866  32.4128196  25.1680500  64.7266490  33.0199457
  29.9346318  64.7122762  33.8522812  30.1509933  65.5947400  33.5511640
  29.4540386  64.3208975  33.1228454  24.6745540  67.6708475  40.4293556
  24.5290121  67.9848778  41.3217838  24.1970743  68.2893375  39.8764455
  26.5341923  64.6611023  40.4774446  26.5203491  63.7652116  40.1406744
  27.2514351  64.6681687  41.1112732  28.3868053  65.0948363  42.5227573
  28.1285831  66.0165434  42.5211904  27.8553094  64.6978798  43.2128038
  33.3314242  78.1999150  35.3017659  33.5051120  77.6345573  34.5491511
  33.8243133  79.0000045  35.1197149  19.1491202  70.2113820  43.3681218
  18.6044670  70.9873628  43.5001492  20.0270552  70.5584624  43.2100339
  25.9378819  63.5425403  35.7462016  26.0594730  62.6142050  35.9452904
  25.6480861  63.5564089  34.8340332  28.8070009  61.2280314  38.8828736
  28.8291706  61.2919647  37.9280716  29.2238068  60.3884822  39.0769242
  39.1853633  70.9635573  36.9207959  39.6284779  70.2142899  36.5227082
  38.3080144  70.9545710  36.5381691  34.3189415  77.5165915  32.4014557
  35.0140319  78.1372608  32.6201872  34.6612565  76.6661266  32.6766935
  19.9357224  69.3383716  46.2611374  19.1938960  69.4866351  46.8476005
  19.6149968  69.5991981  45.3978124  36.2180838  74.9665620  33.9301888
  36.7432162  75.3052893  33.2051208  36.1303190  74.0312636  33.7465022
  25.4219898  65.0557401  49.9551949  25.4708054  65.9319524  49.5729718
  25.9642412  64.5134794  49.3823592  35.9074744  75.5998524  49.2353086
  35.1170288  75.5822663  48.6957585  35.6708098  76.1386818  49.9902122
  36.0272619  72.4490990  46.5485814  36.0770624  72.2840998  47.4901337
  35.9186542  71.5818249  46.1583695  24.9108878  75.1279536  33.8377903
  25.0596998  75.8115000  33.1844576  25.7175321  75.1084626  34.3527359
  33.3176381  68.4321918  47.8645121  34.2186244  68.2928383  47.5729119
  33.3924356  68.5976373  48.8043298  27.6519187  65.8088773  46.7098307
  26.7822496  66.1022339  46.4380896  27.8878667  66.3929218  47.4305571
  37.5290816  74.8687932  46.7927836  37.2375624  75.2317912  47.6291297
  36.9162947  74.1554940  46.6141168  38.7286498  72.4340812  39.3130406
  39.5633389  72.8730616  39.4767966  38.8645627  71.9579465  38.4938652
  35.7778004  69.9920547  45.2607894  36.2532126  70.1848193  44.4526745
  34.8543569  70.0479732  45.0151278  22.6661511  71.1544714  34.8438972
  22.4207553  70.2507044  35.0419182  22.8357425  71.1561864  33.9018450
  30.3558220  62.0268390  44.2263728  30.8740164  62.7629417  43.9010216
  30.0013353  62.3332383  45.0610487  21.9357158  66.8873071  32.3425134
  21.2426403  66.9617426  31.6865170  21.6908910  66.1233415  32.8646651
  30.6070815  58.4468673  39.7464624  30.8872568  57.7791862  40.3725051
  31.3921422  58.6397768  39.2339288  34.4779673  66.8686307  43.4936199
  35.4297096  66.9684404  43.5148424  34.3083123  66.0764575  44.0034284
  32.4994052  63.9541890  43.6795600  31.9043985  64.2346903  42.9842089
  32.2143749  64.4435791  44.4512341  34.2589560  77.2230687  29.4002181
  34.1803191  76.8890551  30.2937938  35.0799226  77.7152455  29.3993653
  36.9567751  70.0892426  42.6078499  36.9244071  69.1508427  42.7938183
  37.5668374  70.1676463  41.8744324  28.7951082  68.9588479  28.6505703
  29.7410186  68.8294687  28.7194121  28.4165327  68.2203141  29.1275131
  37.1062239  66.8803470  42.6536782  36.5901288  66.0961926  42.4666711
  37.9902188  66.5522186  42.8183302  34.7672966  60.6244485  38.6132595
  34.5697787  60.3159574  39.4975927  35.3772672  61.3506124  38.7430525
  42.7744301  71.1508433  41.7484536  43.5047689  70.8893721  42.3092239
  42.1651246  70.4137155  41.7886604  40.8559598  69.2916296  42.3458987
  40.1292761  69.1572261  41.7375479  40.4406885  69.5993124  43.1515705
  28.6789774  73.0106225  50.1106360  29.5992784  73.1884824  50.3046407
  28.6439357  72.0662271  49.9586059  26.9793999  66.8838456  28.5860588
  26.0725454  66.5871568  28.6623302  27.2569980  66.5868274  27.7194875
  17.8971939  68.2044819  39.0359635  17.5774724  67.3510127  38.7434009
  17.3505367  68.4193397  39.7917602  21.6751847  70.9207260  42.7529141
  21.8937857  71.8524368  42.7717175  22.0877621  70.5615235  43.5383945
  28.5956065  61.4275345  34.7404830  27.7856793  61.0822430  35.1160076
  29.2840481  61.1182889  35.3292441  30.5246613  60.5053392  36.3629126
  31.0777651  60.9248846  37.0219149  30.7616699  59.5789140  36.4052082
  26.5479712  66.4940466  52.1431890  26.4476439  67.4434823  52.0743981
  26.3301254  66.1658705  51.2707960  25.7492783  63.7425391  28.7272568
  26.6111947  64.0680289  28.9868385  25.9343128  62.9556887  28.2145633
  17.7660199  71.8247731  41.0052756  17.0723671  71.4101683  40.4922711
  18.5133190  71.8668267  40.4086175  33.9025420  62.6153917  35.8707791
  33.3224089  63.2738721  35.4885843  33.6361353  61.7931262  35.4595208
  32.3528986  62.0158975  38.0729111  32.8528765  62.1275510  37.2643430
  32.9964594  61.7120028  38.7129919  26.4110982  69.9237605  50.9596952
  25.9278064  70.7237965  51.1660841  26.4971921  69.9345550  50.0064396
  19.6796942  71.7565984  38.8818771  19.6567630  71.8553672  37.9300654
  19.9897578  72.6031135  39.2035937  22.3384320  73.8142139  42.9965386
  23.2927573  73.7826082  42.9295317  22.1396843  73.3532763  43.8115612
  22.9283702  72.3843255  45.5636183  23.7476591  72.8787334  45.5871021
  23.2020509  71.4675224  45.5353751  32.6850298  64.7754008  34.9264139
  31.7976153  65.0603658  34.7084334  33.1004287  64.6147771  34.0791416
  36.0364834  64.8000529  38.6418478  36.8125224  65.2896981  38.9143095
  35.3112968  65.2258583  39.0990348  38.4737393  65.5128148  39.6992419
  39.0681883  65.2723884  38.9885727  38.5463976  64.7935279  40.3265955
  31.8293511  74.5398682  29.0212159  32.5329362  74.7448685  29.6369814
  31.1056160  75.1075444  29.2861242  32.6591322  70.2908544  35.1414429
  32.6026523  70.7477095  34.3022061  33.2119664  69.5299228  34.9637272
  36.4696128  66.0798276  35.9664548  36.2133062  65.6794911  36.7972756
  35.8448996  66.7942069  35.8414688  40.7808465  68.8194349  38.4735840
  40.2208023  68.8887538  39.2467402  40.1751969  68.6435333  37.7535336
  33.7380209  74.9781212  31.0710619  34.5725813  74.5462410  30.8888094
  33.5764552  74.8063225  31.9987513  33.3926101  71.4813325  32.4366958
  33.3374905  71.3157596  31.4955402  32.7672156  72.1889358  32.5929148
  18.1818616  66.7181389  46.2628380  18.8277480  66.2080343  46.7515606
  17.9735767  67.4550071  46.8371806  30.7072008  73.7862237  51.7620521
  31.5763168  73.9602889  51.4007156  30.2278760  74.6056654  51.6396250
  26.7022226  60.9821434  32.0152277  26.6900896  61.9263274  32.1720547
  27.5945648  60.7991579  31.7211738  30.5174346  57.5764211  36.2698213
  29.7506742  57.0222697  36.4154896  30.9285051  57.6486079  37.1312365
  22.5216107  63.8649006  50.3603395  23.3847569  63.5085811  50.5706719
  21.9481518  63.5262901  51.0478799  47.3214180  83.1577550  39.1451982
  48.0539351  82.5876767  39.3789812  46.5653535  82.7699150  39.5858488
  44.8439600  76.8699124  43.6046591  44.5122925  77.7394535  43.3807806
  44.2485213  76.5535408  44.2840621  44.7368263  81.5894210  40.6839941
  43.8285141  81.5209619  40.3898702  44.6855859  82.0666155  41.5121766
  46.6029910  79.7910648  42.4617815  45.9604290  80.0843182  41.8157609
  46.0984838  79.6763569  43.2671011  42.0441356  80.5575425  45.8179697
  41.8002288  81.3117485  45.2813973  42.3201287  80.9360772  46.6526944
  41.6006048  79.7131858  41.3993535  40.7390527  80.0113111  41.6910272
  41.6268483  79.9302257  40.4674568  35.0797608  77.2729723  51.3533366
  34.6864553  76.7195922  52.0281010  35.8963748  77.5840302  51.7439884
  37.9965569  78.6887602  48.9453623  38.7375282  79.2894755  48.8658085
  38.2283492  77.9465240  48.3871665  41.9422732  74.7168705  43.2217904
  41.5987001  75.6070347  43.1457015  42.3101694  74.5270363  42.3587489
  39.4920125  79.5527017  36.7875578  38.6361722  79.1633867  36.6081217
  39.9047077  79.6318978  35.9275363  41.0219272  77.0873360  41.1867138
  40.5184068  77.0503495  40.3734943  41.3149879  77.9966103  41.2463794
  37.2662158  77.1712090  40.1933319  38.1315155  76.9754899  39.8339209
  37.3339667  76.9422442  41.1202676  34.8724477  79.4014298  37.5649686
  35.4468229  79.1789479  36.8322879  35.4595459  79.4702992  38.3178287
  37.1747145  76.2755547  36.2924756  36.5211557  75.9604564  35.6681370
  37.1327619  75.6531287  37.0184579  43.6398770  81.1986012  37.7293873
  42.9021527  80.6863398  38.0604115  43.8925544  80.7586394  36.9177150
  43.7410397  73.9762264  38.3235642  44.0469274  73.1159628  38.0361557
  44.4663002  74.5679884  38.1234636  39.8217026  78.4711496  46.1700919
  39.1744941  79.1701445  46.0765396  40.5918041  78.9047640  46.5377167
  41.5693020  79.4386906  38.6740204  42.0661720  78.6856868  38.3541274
  40.7980002  79.4751223  38.1083413  44.0112015  76.4056500  40.8219563
  43.0975095  76.6360727  40.9901770  44.4405117  76.4894944  41.6733595
  36.1331699  78.2818265  46.4824584  36.6566101  78.5280561  47.2450894
  35.9144032  79.1138299  46.0627722  37.3384244  79.2231960  44.1674255
  36.9981064  78.4239773  44.5694935  36.6323250  79.5233671  43.5951088
  37.9900716  76.3081272  42.6201578  38.8126785  75.8341750  42.4980468
  38.2338779  77.0871756  43.1200264  40.7740073  80.0414680  33.8522812
  40.9903687  80.9239317  33.5511640  40.2934140  79.6500893  33.1228454
  37.3735677  79.9902941  40.4774446  37.3597246  79.0944034  40.1406744
  38.0908105  79.9973605  41.1112732  36.7772573  78.8717321  35.7462016
  36.8988484  77.9433967  35.9452904  36.4874616  78.8856007  34.8340332
  39.6463764  76.5572232  38.8828736  39.6685460  76.6211565  37.9280716
  40.0631823  75.7176740  39.0769242  41.1951975  77.3560308  44.2263728
  41.7133919  78.0921335  43.9010216  40.8407108  77.6624301  45.0610487
  41.4464569  73.7760590  39.7464624  41.7266323  73.1083779  40.3725051
  42.2315176  73.9689686  39.2339288  45.3173427  82.1978224  43.4936199
  46.2690850  82.2976322  43.5148424  45.1476878  81.4056493  44.0034284
  43.3387807  79.2833808  43.6795600  42.7437739  79.5638820  42.9842089
  43.0537504  79.7727708  44.4512341  47.9455994  82.2095387  42.6536782
  47.4295042  81.4253844  42.4666711  48.8295942  81.8814104  42.8183302
  45.6066721  75.9536403  38.6132595  45.4091542  75.6451491  39.4975927
  46.2166426  76.6798042  38.7430525  51.6953352  84.6208213  42.3458987
  50.9686516  84.4864178  41.7375479  51.2800639  84.9285042  43.1515705
  39.4349819  76.7567263  34.7404830  38.6250547  76.4114348  35.1160076
  40.1234236  76.4474807  35.3292441  41.3640367  75.8345310  36.3629126
  41.9171406  76.2540763  37.0219149  41.6010454  74.9081058  36.4052082
  36.5886538  79.0717309  28.7272568  37.4505702  79.3972207  28.9868385
  36.7736882  78.2848804  28.2145633  44.7419174  77.9445835  35.8707791
  44.1617843  78.6030639  35.4885843  44.4755107  77.1223180  35.4595208
  43.1922741  77.3450893  38.0729111  43.6922519  77.4567427  37.2643430
  43.8358349  77.0411946  38.7129919  43.5244052  80.1045925  34.9264139
  42.6369907  80.3895576  34.7084334  43.9398041  79.9439689  34.0791416
  46.8758589  80.1292446  38.6418478  47.6518979  80.6188899  38.9143095
  46.1506723  80.5550501  39.0990348  49.3131147  80.8420066  39.6992419
  49.9075638  80.6015802  38.9885727  49.3857731  80.1227196  40.3265955
  47.3089882  81.4090193  35.9664548  47.0526816  81.0086829  36.7972756
  46.6842750  82.1233987  35.8414688  51.6202220  84.1486266  38.4735840
  51.0601778  84.2179456  39.2467402  51.0145723  83.9727251  37.7535336
  37.5415981  76.3113352  32.0152277  37.5294651  77.2555192  32.1720547
  38.4339403  76.1283497  31.7211738  41.3568100  72.9056128  36.2698213
  40.5900496  72.3514615  36.4154896  41.7678805  72.9777997  37.1312365
   9.8483222  16.5137232  27.8911102  10.4861632  16.3943980  27.1874442
   9.7304065  17.4618076  27.9499054   6.6572928  16.4664660  27.8272627
   6.3191439  16.3505725  26.9393162   7.5262696  16.0655826  27.8073633
   2.5159744  18.3200137  23.8169518   1.9524609  18.2290074  23.0485806
   2.4012139  17.5000041  24.2972010   7.1392711  17.6199512  33.7858832
   7.1281352  17.2252310  32.9139336   7.3013350  16.8865585  34.3792604
   8.0959302  21.9871105  19.1283983   7.4447282  22.5725185  18.7417997
   8.8903665  22.5177299  19.1879020   2.0214930  19.0760242  19.5271117
   2.7945806  18.5289229  19.3883993   2.3740328  19.9404491  19.7385579
   3.8599972  20.4036624  32.7338016   3.5689838  21.3082255  32.6184683
   4.4956956  20.4453152  33.4482086   4.7856179  17.7813472  29.3239376
   5.3819751  17.5569495  28.6096339   4.8431150  17.0398218  29.9264824
   9.4024490  14.2388686  24.9664310  10.1887579  13.8208109  24.6154727
   9.6663194  15.1434778  25.1345959   9.5734568  19.6761536  19.6652967
   8.9380400  19.7496163  20.3773872   9.2431974  20.2655135  18.9872046
  14.8032917  14.1763919  25.8697289  15.5358089  13.6063136  26.1035118
  14.0472273  13.7885520  26.3103794   6.4209037  16.5991161  23.0660631
   6.0567244  16.0721782  23.7773553   7.2776153  16.2089630  22.8927117
  12.3258338   7.8885493  30.3291897  11.9941662   8.7580904  30.1053112
  11.7303951   7.5721777  31.0085928   8.8189857  20.0898039  29.7287810
   8.5190580  20.9923078  29.6203617   8.4740917  19.8230223  30.5808963
   2.2702339  16.5411836  25.7624515   1.3452835  16.4088050  25.9702206
   2.5186752  17.3206056  26.2594457  12.2187001  12.6080580  27.4085247
  11.3103878  12.5395988  27.1144008  12.1674597  13.0852525  28.2367073
   3.8010637  26.8542360  22.6958778   3.7234667  27.8050185  22.7747258
   3.1972281  26.5088232  23.3533704   6.2927867  14.0270225  35.3520145
   5.5161201  14.5864145  35.3423009   6.9318430  14.5127008  35.8735015
  14.0848647  10.8097018  29.1863121  13.4423028  11.1029551  28.5402916
  13.5803576  10.6949938  29.9916318  11.7388811  14.5560191  19.8748981
  12.6506667  14.7887578  19.6996678  11.2298458  15.1397235  19.3124059
   4.5474239  16.8355679  34.9138112   5.2888923  17.3740723  34.6372935
   3.8411225  17.4621967  35.0709664  10.0229579  18.9784819  33.5110273
  10.4312935  18.5367230  32.7664906   9.3006840  18.4037447  33.7644466
   6.3760649  13.9157426  30.8843830   7.2221844  14.3396839  31.0278479
   6.3159286  13.2591050  31.5782393  10.3458393  19.5386010  27.2662562
   9.7167256  19.7031724  26.5638630   9.9584055  19.9527619  28.0373526
  14.2247625  20.4740448  24.6206926  13.5398663  20.8539349  24.0703959
  14.3091475  21.0835774  25.3538874   9.5260094  11.5761794  32.5425004
   9.2821026  12.3303855  32.0059280   9.8020025  11.9547142  33.3772251
  11.4798557  18.1200407  31.2202269  11.6915452  18.7632166  30.5436650
  11.4328305  17.2862723  30.7524199   9.0824786  10.7318227  28.1238842
   8.2209265  11.0299481  28.4155579   9.1087220  10.9488626  27.1919874
   5.8986355  19.2760418  24.5312647   6.3624701  19.5548121  23.7417270
   5.6343153  18.3743862  24.3485738   2.7910436  18.8231899  27.4692410
   3.3611793  19.2519168  26.8309895   3.3818548  18.5414484  28.1676596
   4.8355241  15.3983570  21.3402212   5.5379285  15.8504614  21.8076139
   4.5035870  14.7567389  21.9682105   3.2835603  13.9895327  35.7153422
   2.6534263  14.6711608  35.9488819   3.1771691  13.8778408  34.7706560
  12.5944385  20.9972362  29.3924627  13.4161829  20.5952549  29.1107308
  12.5906788  20.8940596  30.3440743   6.3600988  20.5456405  31.5485337
   6.4245421  21.0076813  32.3843509   5.6511912  19.9153770  31.6767647
  20.6850378  17.3411110  25.7409598  19.9314086  16.7718509  25.5853603
  20.8197919  17.3073775  26.6880233   6.0749006  22.2124513  21.4164318
   5.9394681  23.0576048  21.8449165   6.6158818  22.4143790  20.6530251
   1.3373288  22.8465707  24.0714996   1.5139916  23.7683672  23.8835980
   2.1330122  22.5324126  24.5009376   5.4784307   9.7073972  35.6698929
   6.2194020  10.3081125  35.5903392   5.7102229   8.9651609  35.1116972
   7.7017482  22.8348079  35.5464660   7.2581336  22.0484458  35.2285564
   8.3634696  23.0227230  34.8808550   2.4604603  24.3643881  30.0725338
   3.0112029  24.2360944  29.3002332   1.6216079  24.6638770  29.7220231
   9.7998720  23.1150879  33.5746061   9.7817196  23.9359760  33.0826330
  10.7218640  22.9904954  33.7996202   6.2571774  20.6295009  34.4169569
   6.7900111  19.8683297  34.1868877   5.7285856  20.3368660  35.1593724
   9.4241469   5.7355075  29.9463211   9.0805739   6.6256716  29.8702322
   9.7920432   5.5456732  29.0832796   9.3891752  15.7263686  18.4535646
   8.8738376  16.4968290  18.6924034   9.1169061  15.0528822  19.0768708
   6.9738863  10.5713387  23.5120885   6.1180460  10.1820237  23.3326523
   7.3865815  10.6505347  22.6520670   8.5038010   8.1059730  27.9112444
   8.0002805   8.0689865  27.0980250   8.7968617   9.0152473  27.9709101
  14.3626026  18.4796040  20.3888820  13.5855469  18.1407200  19.9443982
  15.0417507  18.4848664  19.7143785   9.1778055  13.5990778  20.2795427
   8.8728191  13.9136927  21.1305571  10.1308497  13.6772198  20.3222760
   7.6224487  19.7581001  21.9288381   7.0945849  19.0233761  21.6161619
   7.1211990  20.5355678  21.6828350  12.6017333  17.9530022  27.0455428
  11.9441008  18.6429283  27.1335556  13.4057732  18.3426454  27.3889414
  11.4122792  16.3074394  25.0959369  11.9254674  16.9404386  25.5981079
  12.0624016  15.7075590  24.7302729   8.6745166  26.2858719  17.8520041
   8.0006865  26.5890415  18.4604998   9.0610988  27.0887799  17.5025498
   7.8903623  13.7823850  27.3417710   6.9726184  14.0038797  27.1839398
   8.3063767  13.8570160  26.4829417   8.6738671  15.1815266  22.4720390
   9.4210490  15.6936663  22.1627512   8.9430260  14.8599318  23.3324784
   6.9465321  17.6773806  19.4547344   6.0376540  17.3932839  19.5519814
   6.9760405  18.0972885  18.5950651  12.1784588  21.2880396  23.2238512
  11.7246915  20.4471306  23.2803702  11.5478555  21.9241794  23.5613292
  11.1217508  12.2172382  24.4539179  10.3840265  11.7049768  24.7849422
  11.3744281  11.7772763  23.6422456  10.6217527  23.1256892  24.1588330
  10.9140502  23.6861950  23.4400696  11.1316148  23.4185453  24.9141489
  11.2229135   4.9948634  25.0480949  11.5288012   4.1345997  24.7606864
  11.9481740   5.5866254  24.8479943   5.4950215  15.2902427  25.5557140
   5.5498825  14.3376263  25.4799616   4.6841417  15.4461866  26.0398438
   3.4342575  13.9079487  23.3147519   2.6210440  14.2073657  23.7212711
   3.9301569  13.5135175  24.0322001   5.5851153  23.9037244  25.2481783
   5.5427331  24.1298090  24.3190315   6.5013852  23.6700618  25.3967584
   9.0316786  14.3721311  32.1462413   9.3866174  14.5992784  33.0056878
   9.6788918  14.7039688  31.5239668  14.7614523  17.4939747  22.8511742
  14.6232422  17.6841343  21.9232931  14.4050742  18.2559130  23.3079793
   2.9256650  11.4797842  28.9308754   3.5656029  11.3386601  28.2331717
   2.0934180  11.1932356  28.5547356  14.7883903  19.5616274  27.8623013
  15.2220410  19.4691563  28.7106067  15.5015484  19.5373774  27.2243029
   3.7016953  20.7800273  25.0443746   4.4957552  20.2850593  24.8426321
   2.9908646  20.2518136  24.6811452   8.5211798  23.1618368  29.3956114
   8.5748820  23.7309304  30.1633830   7.6526579  23.3320253  29.0310151
   1.4010191  12.8635924  30.8780565   2.0733245  12.6553286  30.2293214
   0.5739978  12.6658010  30.4385797  15.6499453  19.6039975  30.3955898
  15.8435343  20.5085785  30.6415173  15.5500071  19.1447394  31.2294484
   7.3035763   9.4897865  32.8946226   6.6563678  10.1887815  32.8010702
   8.0736779   9.9234009  33.2622474  10.7114561  19.7546717  35.9696779
  10.5600068  19.5257269  35.0526863  10.7019241  20.7117319  35.9828124
   7.4799898  17.3278630  30.9543046   8.4091958  17.4789790  30.7812013
   7.0590928  17.4162651  30.0991692   6.2788229  21.3529295  28.7241583
   6.1399315  20.9848079  29.5967521   5.4902826  21.8676934  28.5525541
   6.8736381  26.4538391  20.0667120   7.0488137  25.9826434  20.8812742
   6.1869169  27.0804157  20.2948380   7.8293445  20.7310897  26.1130421
   7.4943277  20.6911667  27.0088071   7.3297390  20.0655613  25.6400831
   1.8037689  16.1378527  31.6383002   1.6657486  15.4058766  32.2394541
   2.7142612  16.0487427  31.3567190   4.4319989  15.8498487  31.1266682
   5.1419608  15.2091679  31.0853300   4.3889297  16.1011381  32.0492863
  12.4206768  22.7865840  34.0473261  12.3619314  22.1025060  33.3803844
  12.8226286  23.5284830  33.5953887   3.1448923  12.8363705  32.9462321
   2.6086280  12.3854443  33.5983918   2.5565632  12.9709613  32.2032786
   1.4397467  29.6027754  26.8406980   1.6794065  30.2346278  27.5185998
   0.5966663  29.2515794  27.1272339  12.4224175  20.7505424  32.2787241
  11.5350954  20.4131346  32.4013640  12.9922726  20.0188455  32.5156006
   5.9525329  25.4106876  29.2448484   5.8795500  26.2161848  29.7567788
   5.5102722  25.6098842  28.4196505   5.7415108  24.6478646  22.7551305
   4.9582630  25.1900326  22.8489530   6.4407853  25.1652626  23.1545547
   9.0511758  10.4573276  25.3985511   9.5480458   9.7043238  25.0786581
   8.2798740  10.4937592  24.8328720  16.9041516  16.1613641  27.0403802
  16.8931392  17.0438357  26.6697735  16.0358895  15.8085192  26.8458339
   8.4124012  25.3093710  31.4006642   9.1251984  25.9441175  31.3282544
   7.9214041  25.4057576  30.5846644  10.1341539  19.2144963  22.9723934
   9.1997818  19.3346425  22.8028638  10.3118207  18.3117430  22.7083944
   5.6346727  12.5990659  25.1257195   5.2644515  12.0461699  25.8138101
   6.1305819  11.9948792  24.5732195  13.5214090  15.0562282  23.5073968
  13.9874543  15.8890274  23.4334271  13.9721591  14.5907264  24.2119227
   3.4635926  23.0588154  32.2212213   4.1645385  23.6924637  32.3741608
   2.9931041  23.4002885  31.4607853  11.5890321  21.4006104  20.5060120
  11.8650165  21.2862698  21.4153994  10.7194820  21.0023588  20.4672293
  11.4930753   7.4242869  27.5464870  10.5793833   7.6547096  27.7147077
  11.9223855   7.5081313  28.3978902  11.2637212  15.6132761  30.0464764
  10.6108662  15.8608669  29.3917216  11.6417591  14.7996899  29.7127241
   8.2244385  25.6492454  24.1492934   8.4066780  24.8314110  24.6120686
   9.0477371  25.8660147  23.7117824   8.5586551  24.5760639  21.4107982
   9.0874317  24.0653094  20.7978145   8.8214771  24.2603170  22.2753515
   7.3124785  16.3552572  36.5330801   6.6365422  16.2546702  37.2033176
   8.1352418  16.1991786  36.9966798   1.9142299  25.6275756  24.1705758
   1.2452674  26.1121884  23.6869798   1.7755169  25.8744977  25.0849137
   6.0547567  27.6619500  30.7688417   6.6065876  27.8251121  31.5337502
   6.3953761  28.2523938  30.0968442  10.9058442  22.4880757  36.6237071
  11.4498346  23.1010715  36.1292026  10.3245287  23.0460336  37.1404084
   9.1915955  25.6101475  27.7552099   9.0667094  24.8091215  27.2463044
   9.8495046  26.1047669  27.2666069  11.2550863  23.4110495  29.3831649
  10.3081199  23.2915846  29.3109976  11.6033636  22.5232993  29.4657910
   8.2597296  23.2063212  25.5836001   8.1122259  22.2779919  25.7643571
   9.0850790  23.2283302  25.0993076  11.8631418  24.0291770  26.6700874
  12.7877966  23.8234632  26.5325325  11.6946722  23.7808171  27.5790215
   4.8202982  10.2418329  30.8919561   4.4799802   9.4426142  31.2940241
   4.1141988  10.5420040  30.3196395   2.9958032  14.0186762  27.1538863
   2.8502613  14.3327065  28.0463145   2.5183236  14.6371663  26.6009762
   4.8554415  11.0089310  27.2019753   4.8415984  10.1130404  26.8652051
   5.5726843  11.0159974  27.8358039   6.7080546  11.4426651  29.2472880
   6.4498324  12.3643721  29.2457210   6.1765586  11.0457085  29.9373344
  11.6526734  24.5477438  22.0262965  11.8263612  23.9823860  21.2736818
  12.1455626  25.3478333  21.8442455  17.5066126  17.3113861  23.6453265
  17.9497272  16.5621186  23.2472388  16.6292636  17.3023997  23.2626997
  12.6401907  23.8644202  19.1259864  13.3352812  24.4850895  19.3447178
  12.9825057  23.0139553  19.4012242  14.5393330  21.3143908  20.6547194
  15.0644654  21.6531180  19.9296514  14.4515683  20.3790923  20.4710329
   6.2013379  25.2277981  32.7837071   6.5100505  24.9827128  33.6559771
   6.9988861  25.4324620  32.2955941   6.2233991  27.3815891  25.0142448
   5.7838981  26.8892270  25.7075304   6.9742108  26.8388859  24.7734523
   3.6707863  22.9253900  27.0864749   3.0487872  22.2624605  26.7866977
   4.3412730  22.9515032  26.4038397   3.7432390  11.4035688  36.6797255
   3.7920546  12.2797811  36.2975025   4.2854905  10.8613081  36.1068899
  14.2287236  21.9476811  35.9598392  13.4382780  21.9300950  35.4202892
  13.9920591  22.4865105  36.7147429  14.3485111  18.7969278  33.2731121
  14.3983116  18.6319285  34.2146644  14.2399035  17.9296537  32.8829002
   3.2321370  21.4757823  20.5623210   3.3809490  22.1593288  19.9089883
   4.0387813  21.4562913  21.0772666  11.6388874  14.7800206  34.5890428
  12.5398736  14.6406671  34.2974425  11.7136848  14.9454661  35.5288605
   5.9731679  12.1567060  33.4343614   5.1034988  12.4500626  33.1626203
   6.2091159  12.7407505  34.1550878  15.8503308  21.2166219  33.5173143
  15.5588116  21.5796200  34.3536603  15.2375439  20.5033227  33.3386475
  17.0498990  18.7819099  26.0375713  17.8845882  19.2208903  26.2013273
  17.1858119  18.3057752  25.2183959  14.0990496  16.3398834  31.9853200
  14.5744618  16.5326480  31.1772052  13.1756062  16.3958020  31.7396584
   0.9874003  17.5023001  21.5684279   0.7420045  16.5985331  21.7664489
   1.1569917  17.5040151  20.6263757   8.6770713   8.3746677  30.9509034
   9.1952657   9.1107704  30.6255523   8.3225846   8.6810671  31.7855794
   6.7316775  23.9705954  18.0334957   6.1590743  24.5896141  17.5805429
   7.3049569  24.5205315  18.5674879  12.7992165  13.2164594  30.2181506
  13.7509588  13.3162692  30.2393730  12.6295616  12.4242862  30.7279590
  10.8206545  10.3020177  30.4040907  10.2256477  10.5825190  29.7087396
  10.5356241  10.7914078  31.1757648   9.9514035  24.2543104  19.1643540
  10.8844708  24.1888666  19.3676415   9.8637248  25.0899371  18.7058072
  12.5802052  23.5708974  16.1247487  12.5015683  23.2368838  17.0183245
  13.4011719  24.0630742  16.1238959  15.2780243  16.4370714  29.3323806
  15.2456563  15.4986714  29.5183490  15.8880867  16.5154750  28.5989631
  15.4274732  13.2281757  29.3782089  14.9113780  12.4440214  29.1912018
  16.3114680  12.9000474  29.5428608  13.0885458   6.9722773  25.3377902
  12.8910280   6.6637861  26.2221234  13.6985164   7.6984411  25.4675831
  21.0956793  17.4986720  28.4729843  21.8260181  17.2372009  29.0337546
  20.4863738  16.7615442  28.5131911  19.1772090  15.6394583  29.0704294
  18.4505254  15.5050548  28.4620785  18.7619377  15.9471412  29.8761012
   7.0002266  19.3584513  36.8351667   7.9205276  19.5363112  37.0291713
   6.9651849  18.4140558  36.6831366   4.8692204  12.8418753  38.8677197
   4.7688931  13.7913110  38.7989288   4.6513746  12.5136992  37.9953267
  12.2237912   8.9632205  22.5953097  11.6436581   9.6217009  22.2131150
  11.9573845   8.1409549  22.1840515  10.6741479   8.3637262  24.7974418
  11.1741257   8.4753797  23.9888736  11.3177086   8.0598315  25.4375226
   4.7323474  16.2715892  37.6842259   4.2490556  17.0716252  37.8906148
   4.8184413  16.2823837  36.7309703   0.6596812  20.1620427  29.7210692
   1.6140065  20.1304369  29.6540624   0.4609335  19.7011050  30.5360918
   1.2496194  18.7321543  32.2881490   2.0689083  19.2265621  32.3116327
   1.5233002  17.8153511  32.2599057  11.0062790  11.1232295  21.6509445
  10.1188645  11.4081946  21.4329640  11.4216779  10.9626058  20.8036722
  14.3577326  11.1478816  25.3663785  15.1337716  11.6375268  25.6388402
  13.6325461  11.5736870  25.8235654  16.7949885  11.8606435  26.4237725
  17.3894376  11.6202171  25.7131034  16.8676469  11.1413566  27.0511262
  10.1506004  20.8876970  15.7457465  10.8541854  21.0926972  16.3615121
   9.4268652  21.4553732  16.0106549  10.9803814  16.6386831  21.8659736
  10.9239015  17.0955382  21.0267368  11.5332156  15.8777516  21.6882578
  14.7908620  12.4276563  22.6909855  14.5345554  12.0273198  23.5218063
  14.1661488  13.1420357  22.5659994  19.1020958  15.1672636  25.1981147
  18.5420516  15.2365825  25.9712709  18.4964461  14.9913621  24.4780643
   2.1716167  26.6009363  26.9499333   2.0548551  27.5454796  26.8478023
   1.3508613  26.2982925  27.3385132  12.0592701  21.3259499  17.7955926
  12.8938305  20.8940697  17.6133400  11.8977044  21.1541513  18.7232820
  11.7138593  17.8291612  19.1612265  11.6587397  17.6635884  18.2200709
  11.0884649  18.5367645  19.3174455   9.0284500  20.1340524  38.4865828
   9.8975660  20.3081176  38.1252463   8.5491252  20.9534941  38.3641557
   3.1970681  27.2537625  30.1655261   4.0997927  27.2861235  30.4821756
   2.9708051  26.3238076  30.1801597   4.9524283  26.0068612  26.8265340
   4.0019914  26.0070473  26.7129712   5.2556769  25.2601346  26.3101374
  20.6876976  31.8429150  27.8911102  21.3255386  31.7235897  27.1874442
  20.5697819  32.7909994  27.9499054  17.4966682  31.7956578  27.8272627
  17.1585194  31.6797643  26.9393162  18.3656451  31.3947743  27.8073633
  13.3553498  33.6492055  23.8169518  12.7918363  33.5581991  23.0485806
  13.2405893  32.8291959  24.2972010  17.9786465  32.9491430  33.7858832
  17.9675106  32.5544228  32.9139336  18.1407105  32.2157502  34.3792604
  10.9017930  35.1443246  26.6553738  11.6939222  34.8034071  26.2400038
  11.1414580  35.2538221  27.5755892  18.9353057  37.3163022  19.1283983
  18.2841037  37.9017103  18.7417997  19.7297420  37.8469217  19.1879020
  12.8608684  34.4052159  19.5271117  13.6339560  33.8581146  19.3883993
  13.2134083  35.2696409  19.7385579  14.6993727  35.7328542  32.7338016
  14.4083593  36.6374172  32.6184683  15.3350711  35.7745069  33.4482086
  15.6249933  33.1105390  29.3239376  16.2213506  32.8861413  28.6096339
  15.6824905  32.3690136  29.9264824  15.1974962  30.5644825  17.1589567
  15.4500483  30.0426347  16.3973030  14.2599521  30.4010971  17.2616251
  20.2418245  29.5680604  24.9664310  21.0281334  29.1500027  24.6154727
  20.5056949  30.4726696  25.1345959  20.4128322  35.0053454  19.6652967
  19.7774155  35.0788081  20.3773872  20.0825728  35.5947053  18.9872046
  25.6426672  29.5055837  25.8697289  26.3751844  28.9355054  26.1035118
  24.8866027  29.1177437  26.3103794  14.9171251  32.4672931  19.3613942
  14.8007509  31.7917835  20.0295026  15.0273510  31.9805305  18.5446095
  17.2602792  31.9283079  23.0660631  16.8960999  31.4013700  23.7773553
  18.1169907  31.5381548  22.8927117  23.1652092  23.2177411  30.3291897
  22.8335417  24.0872822  30.1053112  22.5697706  22.9013695  31.0085928
  16.9008278  26.9572978  18.0621980  17.0682681  27.8253215  18.4292451
  16.7105448  27.1200260  17.1383269  19.6583612  35.4189957  29.7287810
  19.3584335  36.3214996  29.6203617  19.3134671  35.1522140  30.5808963
  13.1096093  31.8703754  25.7624515  12.1846590  31.7379968  25.9702206
  13.3580506  32.6497973  26.2594457  23.0580755  27.9372497  27.4085247
  22.1497633  27.8687906  27.1144008  23.0068351  28.4144442  28.2367073
  16.8797499  29.4130636  19.0468647  16.7597125  29.8587686  19.8854127
  16.1850088  29.7615953  18.4882185  10.4704904  31.5137028  26.5968304
  10.5997285  31.7671506  27.5107715   9.7902355  32.1064736  26.2772959
  14.6404391  42.1834277  22.6958778  14.5628421  43.1342103  22.7747258
  14.0366035  41.8380150  23.3533704  17.1321621  29.3562143  35.3520145
  16.3554955  29.9156063  35.3423009  17.7712184  29.8418926  35.8735015
  24.9242402  26.1388936  29.1863121  24.2816782  26.4321469  28.5402916
  24.4197330  26.0241856  29.9916318  22.5782566  29.8852109  19.8748981
  23.4900422  30.1179496  19.6996678  22.0692213  30.4689153  19.3124059
  15.3867994  32.1647596  34.9138112  16.1282678  32.7032640  34.6372935
  14.6804979  32.7913885  35.0709664  20.8623333  34.3076737  33.5110273
  21.2706689  33.8659147  32.7664906  20.1400595  33.7329364  33.7644466
  17.2154403  29.2449344  30.8843830  18.0615598  29.6688757  31.0278479
  17.1553041  28.5882968  31.5782393  21.1852148  34.8677927  27.2662562
  20.5561010  35.0323641  26.5638630  20.7977810  35.2819537  28.0373526
  25.0641380  35.8032365  24.6206926  24.3792418  36.1831267  24.0703959
  25.1485229  36.4127692  25.3538874  20.3653849  26.9053712  32.5425004
  20.1214780  27.6595772  32.0059280  20.6413779  27.2839059  33.3772251
  19.9218540  26.0610145  28.1238842  19.0603019  26.3591398  28.4155579
  19.9480975  26.2780544  27.1919874  16.7380110  34.6052335  24.5312647
  17.2018455  34.8840038  23.7417270  16.4736908  33.7035780  24.3485738
  13.6304191  34.1523817  27.4692410  14.2005548  34.5811085  26.8309895
  14.2212303  33.8706402  28.1676596  15.6748996  30.7275488  21.3402212
  16.3773039  31.1796531  21.8076139  15.3429624  30.0859307  21.9682105
  14.1229357  29.3187244  35.7153422  13.4928018  30.0003525  35.9488819
  14.0165445  29.2070326  34.7706560   9.4174330  28.9859040  26.6419346
   8.6273384  29.2416569  26.1659457   9.9085577  29.8007378  26.7471386
  23.4338139  36.3264280  29.3924627  24.2555583  35.9244467  29.1107308
  23.4300542  36.2232514  30.3440743  11.3689075  29.3503620  23.6002823
  10.5720238  29.4622314  24.1186318  11.1414667  29.6890272  22.7343713
  17.1994743  35.8748323  31.5485337  17.2639175  36.3368730  32.3843509
  16.4905667  35.2445688  31.6767647   7.7012033  29.2389531  29.0734337
   7.9520071  30.1236541  29.3391913   8.2371581  29.0594132  28.3009429
  31.5244132  32.6703028  25.7409598  30.7707841  32.1010426  25.5853603
  31.6591674  32.6365693  26.6880233  16.9142760  37.5416430  21.4164318
  16.7788435  38.3867966  21.8449165  17.4552573  37.7435708  20.6530251
  13.4010100  23.6208010  38.0778673  13.0077046  23.0674209  38.7526317
  14.2176240  23.9318589  38.4685190  10.3672158  35.0591868  21.9892243
  10.8796678  35.8535119  22.1397807  11.0194871  34.3618159  21.9225844
  12.1767042  38.1757625  24.0714996  12.3533671  39.0975589  23.8835980
  12.9723876  37.8616044  24.5009376  16.3178061  25.0365889  35.6698929
  17.0587774  25.6373043  35.5903392  16.5495984  24.2943527  35.1116972
  11.4619399  30.2222257  33.9477159  11.3472914  29.3207514  34.2484258
  10.6063917  30.4685953  33.5961976  18.5411237  38.1639997  35.5464660
  18.0975091  37.3776376  35.2285564  19.2028450  38.3519147  34.8808550
  13.2998358  39.6935799  30.0725338  13.8505783  39.5652862  29.3002332
  12.4609834  39.9930688  29.7220231  20.6392475  38.4442797  33.5746061
  20.6210950  39.2651678  33.0826330  21.5612395  38.3196872  33.7996202
  17.0965529  35.9586926  34.4169569  17.6293866  35.1975215  34.1868877
  16.5679610  35.6660578  35.1593724  20.2635224  21.0646992  29.9463211
  19.9199493  21.9548634  29.8702322  20.6314187  20.8748650  29.0832796
   8.3321075  33.3880523  22.7651813   9.1696297  33.7977531  22.5485521
   8.5099342  32.4479965  22.7352007  20.2285507  31.0555603  18.4535646
  19.7132130  31.8260208  18.6924034  19.9562815  30.3820740  19.0768708
  17.8132618  25.9005304  23.5120885  16.9574214  25.5112155  23.3326523
  18.2259569  25.9797265  22.6520670  19.3431764  23.4351647  27.9112444
  18.8396560  23.3981783  27.0980250  19.6362371  24.3444390  27.9709101
  15.5874650  23.5190377  26.9178626  16.4527647  23.3233186  26.5584515
  15.6552159  23.2900729  27.8447983  25.2019781  33.8087958  20.3888820
  24.4249224  33.4699118  19.9443982  25.8811262  33.8140581  19.7143785
  20.0171810  28.9282696  20.2795427  19.7121945  29.2428845  21.1305571
  20.9702252  29.0064115  20.3222760  18.4618242  35.0872919  21.9288381
  17.9339603  34.3525678  21.6161619  17.9605744  35.8647595  21.6828350
  23.4411088  33.2821939  27.0455428  22.7834762  33.9721201  27.1335556
  24.2451487  33.6718371  27.3889414  13.1936969  25.7492585  24.2894993
  13.7680721  25.5267767  23.5568186  13.7807952  25.8181280  25.0423594
  22.2516547  31.6366312  25.0959369  22.7648428  32.2696304  25.5981079
  22.9017770  31.0367508  24.7302729  13.5206556  27.7797046  18.3090878
  12.6843869  28.1171733  18.6300153  13.3811326  27.6446026  17.3718015
  15.4959637  22.6233834  23.0170062  14.8424049  22.3082851  22.3926677
  15.4540111  22.0009574  23.7429885  16.6070842  32.9053129  14.9323354
  15.6997904  32.6742383  15.1314503  17.1041874  32.1090748  15.1197336
  19.5138921  41.6150636  17.8520041  18.8400620  41.9182333  18.4604998
  19.9004743  42.4179717  17.5025498  18.7297377  29.1115768  27.3417710
  17.8119939  29.3330715  27.1839398  19.1457521  29.1862078  26.4829417
  19.5132425  30.5107183  22.4720390  20.2604244  31.0228580  22.1627512
  19.7824015  30.1891236  23.3324784  17.7859075  33.0065724  19.4547344
  16.8770295  32.7224757  19.5519814  17.8154159  33.4264803  18.5950651
  23.0178343  36.6172313  23.2238512  22.5640670  35.7763223  23.2803702
  22.3872309  37.2533712  23.5613292  21.9611262  27.5464300  24.4539179
  21.2234019  27.0341686  24.7849422  22.2138036  27.1064681  23.6422456
  21.4611282  38.4548810  24.1588330  21.7534256  39.0153867  23.4400696
  21.9709903  38.7477371  24.9141489  22.0622890  20.3240552  25.0480949
  22.3681766  19.4637915  24.7606864  22.7875494  20.9158172  24.8479943
   8.3547246  30.7271238  23.4362547   8.1571646  30.1340599  22.7113613
   7.7993910  30.4223448  24.1538485  16.3343969  30.6194345  25.5557140
  16.3892579  29.6668181  25.4799616  15.5235171  30.7753784  26.0398438
  17.4835163  34.5474468  16.7935423  17.0454593  33.8310327  16.3341060
  18.2245604  34.7750582  16.2320514  14.2736329  29.2371404  23.3147519
  13.4604195  29.5365575  23.7212711  14.7695323  28.8427093  24.0322001
  16.4244907  39.2329161  25.2481783  16.3821086  39.4590008  24.3190315
  17.3407606  38.9992536  25.3967584  19.8710541  29.7013229  32.1462413
  20.2259929  29.9284702  33.0056878  20.5182672  30.0331606  31.5239668
  25.6008278  32.8231665  22.8511742  25.4626176  33.0133261  21.9232931
  25.2444497  33.5851047  23.3079793  13.7650404  26.8089760  28.9308754
  14.4049783  26.6678519  28.2331717  12.9327935  26.5224273  28.5547356
  25.6277657  34.8908192  27.8623013  26.0614164  34.7983481  28.7106067
  26.3409238  34.8665692  27.2243029  14.5410708  36.1092190  25.0443746
  15.3351306  35.6142510  24.8426321  13.8302400  35.5810053  24.6811452
  19.3605552  38.4910286  29.3956114  19.4142575  39.0601222  30.1633830
  18.4920334  38.6612171  29.0310151  10.8493471  30.2535272  21.1203499
   9.9191059  30.1919727  21.3373461  10.9450943  29.7311225  20.3240140
  10.7679020  26.7790085  23.7081740  11.0285838  27.6935418  23.5990901
  11.5896193  26.3114527  23.8578353  12.2403946  28.1927842  30.8780565
  12.9126999  27.9845204  30.2293214  11.4133732  27.9949928  30.4385797
  18.1429518  24.8189783  32.8946226  17.4957433  25.5179733  32.8010702
  18.9130533  25.2525927  33.2622474  21.5508316  35.0838635  35.9696779
  21.3993822  34.8549187  35.0526863  21.5412995  36.0409237  35.9828124
  18.3193652  32.6570548  30.9543046  19.2485712  32.8081707  30.7812013
  17.8984682  32.7454569  30.0991692  17.1181984  36.6821212  28.7241583
  16.9793070  36.3139997  29.5967521  16.3296580  37.1968852  28.5525541
  17.7130136  41.7830309  20.0667120  17.8881892  41.3118352  20.8812742
  17.0262924  42.4096075  20.2948380  18.6687199  36.0602815  26.1130421
  18.3337032  36.0203585  27.0088071  18.1691145  35.3947531  25.6400831
  12.6431443  31.4670445  31.6383002  12.5051241  30.7350684  32.2394541
  13.5536366  31.3779345  31.3567190  21.6046391  33.4058849  16.3867481
  20.9875561  32.6805677  16.2900533  21.1362879  34.1668210  16.0434555
  15.2713744  31.1790404  31.1266682  15.9813362  30.5383596  31.0853300
  15.2283052  31.4303299  32.0492863  23.2600522  38.1157758  34.0473261
  23.2013069  37.4316978  33.3803844  23.6620041  38.8576748  33.5953887
  13.9842678  28.1655622  32.9462321  13.4480035  27.7146361  33.5983918
  13.3959386  28.3001531  32.2032786  12.2791221  44.9319671  26.8406980
  12.5187819  45.5638196  27.5185998  11.4360418  44.5807712  27.1272339
  13.3944937  27.6244274  15.5088785  12.5174403  27.5033074  15.1451032
  13.8702690  26.8330352  15.2567674   4.9147077  32.4121433  25.6030292
   5.6018117  32.0983163  25.0151307   4.7595205  33.3162798  25.3297543
   9.7181799  27.3011630  30.0315316   9.6339988  26.6937299  29.2965726
   8.8964505  27.7920648  30.0324812  16.7919083  40.7398794  29.2448484
  16.7189255  41.5453765  29.7567788  16.3496476  40.9390760  28.4196505
  16.5808863  39.9770564  22.7551305  15.7976385  40.5192244  22.8489530
  17.2801608  40.4944544  23.1545547  19.8905513  25.7865193  25.3985511
  20.3874212  25.0335156  25.0786581  19.1192494  25.8229510  24.8328720
  19.2517767  40.6385628  31.4006642  19.9645739  41.2733093  31.3282544
  18.7607795  40.7349494  30.5846644  20.9735293  34.5436881  22.9723934
  20.0391572  34.6638343  22.8028638  21.1511962  33.6409347  22.7083944
  16.4740482  27.9282576  25.1257195  16.1038269  27.3753617  25.8138101
  16.9699574  27.3240710  24.5732195  24.3607845  30.3854200  23.5073968
  24.8268297  31.2182192  23.4334271  24.8115345  29.9199181  24.2119227
  14.3029680  38.3880071  32.2212213  15.0039140  39.0216554  32.3741608
  13.8324795  38.7294803  31.4607853  22.4284076  36.7298021  20.5060120
  22.7043920  36.6154616  21.4153994  21.5588575  36.3315506  20.4672293
  22.3324508  22.7534787  27.5464870  21.4187587  22.9839014  27.7147077
  22.7617609  22.8373231  28.3978902  22.1030966  30.9424679  30.0464764
  21.4502416  31.1900586  29.3917216  22.4811346  30.1288817  29.7127241
  19.0638140  40.9784372  24.1492934  19.2460534  40.1606028  24.6120686
  19.8871126  41.1952064  23.7117824  19.3980305  39.9052557  21.4107982
  19.9268072  39.3945012  20.7978145  19.6608525  39.5895087  22.2753515
  18.1518539  31.6844490  36.5330801  17.4759176  31.5838619  37.2033176
  18.9746173  31.5283704  36.9966798   9.8997398  37.9216426  29.1543316
  10.4850835  37.1760114  29.2871220   9.7022237  38.2320383  30.0379980
  12.7536053  40.9567674  24.1705758  12.0846429  41.4413801  23.6869798
  12.6148923  41.2036894  25.0849137   4.4915053  30.4922027  27.8747759
   4.5299152  29.9585617  28.6684877   3.9855346  29.9657232  27.2558736
  16.8941322  42.9911417  30.7688417  17.4459630  43.1543039  31.5337502
  17.2347515  43.5815855  30.0968442  11.8705815  25.3386567  31.3710301
  11.9347142  26.2001398  30.9587699  11.8072935  24.7260569  30.6382660
  11.3458088  27.4109700  35.0183336  11.9730127  27.0286777  35.6320860
  10.4886007  27.1923902  35.3839028  21.7452196  37.8172675  36.6237071
  22.2892100  38.4302633  36.1292026  21.1639041  38.3752253  37.1404084
   8.1223630  29.2186129  20.9501691   8.4177072  28.3096807  20.8968744
   7.2211666  29.1973868  20.6282693  20.0309709  40.9393393  27.7552099
  19.9060849  40.1383133  27.2463044  20.6888800  41.4339586  27.2666069
  11.6517877  27.2942125  26.9329239  10.9304463  27.9078093  26.7936712
  12.4411133  27.8299890  26.8545885  22.0944618  38.7402413  29.3831649
  21.1474953  38.6207764  29.3109976  22.4427391  37.8524911  29.4657910
  14.4544191  24.6296552  33.2069891  14.9778593  24.8758848  33.9696200
  14.2356524  25.4616587  32.7873028   9.8511472  26.9000226  21.0741016
   9.5224178  26.0197605  20.8916122  10.2050843  26.8447895  21.9617405
  19.0991051  38.5355129  25.5836001  18.9516013  37.6071837  25.7643571
  19.9244544  38.5575220  25.0993076  12.9653295  27.1873196  21.4416493
  13.3049368  27.7159118  20.7195102  13.4125416  27.5253602  22.2175060
  22.7025173  39.3583688  26.6700874  23.6271720  39.1526549  26.5325325
  22.5340476  39.1100089  27.5790215  15.6596736  25.5710247  30.8919561
  15.3193556  24.7718060  31.2940241  14.9535742  25.8711958  30.3196395
  16.3113208  22.6559559  29.3446884  17.1339277  22.1820038  29.2225775
  16.5551271  23.4350043  29.8445571  14.9521442  25.6847818  19.6409786
  15.6729805  26.0629071  19.1373503  14.3286746  26.4036695  19.7444764
  19.0952565  26.3892967  20.5768118  19.3116180  27.2717605  20.2756947
  18.6146632  25.9979180  19.8473760  13.8351787  29.3478680  27.1538863
  13.6896367  29.6618983  28.0463145  13.3576990  29.9663580  26.6009762
  15.6948169  26.3381228  27.2019753  15.6809738  25.4422321  26.8652051
  16.4120598  26.3451892  27.8358039  17.5474300  26.7718568  29.2472880
  17.2892078  27.6935639  29.2457210  17.0159341  26.3749003  29.9373344
  22.4920489  39.8769355  22.0262965  22.6657367  39.3115778  21.2736818
  22.9849380  40.6770250  21.8442455   8.3097449  31.8884024  30.0926524
   7.7650917  32.6643832  30.2246799   9.1876799  32.2354829  29.9345646
  15.0985065  25.2195608  22.4707323  15.2200977  24.2912255  22.6698210
  14.8087108  25.2334294  21.5585638  17.9676256  22.9050519  25.6074043
  17.9897953  22.9689852  24.6526022  18.3844315  22.0655027  25.8014549
  28.3459880  32.6405778  23.6453265  28.7891026  31.8913104  23.2472388
  27.4686390  32.6315915  23.2626997  23.4795661  39.1936120  19.1259864
  24.1746566  39.8142812  19.3447178  23.8218812  38.3431471  19.4012242
   9.0963471  31.0153921  32.9856681   8.3545207  31.1636556  33.5721312
   8.7756215  31.2762186  32.1223431  25.3787085  36.6435825  20.6547194
  25.9038409  36.9823098  19.9296514  25.2909437  35.7082841  20.4710329
  17.0407133  40.5569899  32.7837071  17.3494260  40.3119046  33.6559771
  17.8382615  40.7616537  32.2955941  17.0627745  42.7107809  25.0142448
  16.6232736  42.2184187  25.7075304  17.8135862  42.1680776  24.7734523
   9.5420084  38.9019349  25.0167076  10.3678104  38.6023121  24.6365719
   9.1914136  38.1326972  25.4656864  14.5101617  38.2545818  27.0864749
  13.8881627  37.5916523  26.7866977  15.1806484  38.2806950  26.4038397
   7.7428689  36.8205676  25.9756009   6.9060598  36.3927850  25.7940011
   7.7152335  37.0138119  26.9126801  14.5826145  26.7327606  36.6797255
  14.6314300  27.6089729  36.2975025  15.1248659  26.1904999  36.1068899
  14.0715124  36.8049741  20.5623210  14.2203245  37.4885205  19.9089883
  14.8781568  36.7854831  21.0772666  22.4782628  30.1092123  34.5890428
  23.3792491  29.9698588  34.2974425  22.5530603  30.2746578  35.5288605
  16.8125433  27.4858978  33.4343614  15.9428743  27.7792544  33.1626203
  17.0484914  28.0699423  34.1550878  27.8892745  34.1111017  26.0375713
  28.7239636  34.5500821  26.2013273  28.0251874  33.6349670  25.2183959
  11.8267757  32.8314919  21.5684279  11.5813799  31.9277249  21.7664489
  11.9963672  32.8332069  20.6263757  19.5164467  23.7038595  30.9509034
  20.0346411  24.4399622  30.6255523  19.1619600  24.0102588  31.7855794
  11.0963405  28.5643276  19.0670440  10.4032650  28.6387631  18.4110476
  10.8515157  27.8003620  19.5891957  19.7677061  20.1238878  26.4709931
  20.0478815  19.4562067  27.0970358  20.5527668  20.3167973  25.9584595
  17.5710530  39.2997871  18.0334957  16.9984497  39.9188059  17.5805429
  18.1443324  39.8497233  18.5674879  23.6385920  28.5456512  30.2181506
  24.5903343  28.6454609  30.2393730  23.4689370  27.7534780  30.7279590
  21.6600299  25.6312095  30.4040907  21.0650231  25.9117107  29.7087396
  21.3749996  26.1205996  31.1757648  20.7907790  39.5835022  19.1643540
  21.7238463  39.5180583  19.3676415  20.7031003  40.4191288  18.7058072
  23.4195806  38.9000892  16.1247487  23.3409438  38.5660756  17.0183245
  24.2405473  39.3922660  16.1238959  17.9557328  30.6358684  15.3751010
  18.9016433  30.5064892  15.4439428  17.5771573  29.8973346  15.8520438
  23.9279213  22.3014690  25.3377902  23.7304034  21.9929778  26.2221234
  24.5378919  23.0276329  25.4675831  31.9350547  32.8278638  28.4729843
  32.6653936  32.5663926  29.0337546  31.3257493  32.0907360  28.5131911
  17.8396021  34.6876430  36.8351667  18.7599030  34.8655029  37.0291713
  17.8045604  33.7432476  36.6831366  16.1400246  28.5608661  15.3105895
  15.2331701  28.2641773  15.3868609  16.4176227  28.2638479  14.4440181
   7.0578186  29.8815024  25.7604941   6.7380970  29.0280332  25.4679315
   6.5111614  30.0963602  26.5162909  10.8358094  32.5977465  29.4774448
  11.0544103  33.5294573  29.4962482  11.2483867  32.2385439  30.2629252
  17.7562311  23.1045550  21.4650136  16.9463040  22.7592635  21.8405382
  18.4446728  22.7953094  22.0537748  19.6852860  22.1823597  23.0874433
  20.2383898  22.6019051  23.7464456  19.9222946  21.2559345  23.1297389
  15.7085959  28.1710671  38.8677197  15.6082686  29.1205028  38.7989288
  15.4907501  27.8428910  37.9953267  14.9099030  25.4195596  15.4517874
  15.7718194  25.7450494  15.7113692  15.0949374  24.6327092  14.9390940
   6.9266446  33.5017936  27.7298063   6.2329917  33.0871888  27.2168017
   7.6739437  33.5438472  27.1331482  23.0631667  24.2924122  22.5953097
  22.4830336  24.9508926  22.2131150  22.7967599  23.4701467  22.1840515
  21.5135233  23.6929180  24.7974418  22.0135011  23.8045715  23.9888736
  22.1570841  23.3890233  25.4375226  15.5717229  31.6007810  37.6842259
  15.0884311  32.4008170  37.8906148  15.6578168  31.6115754  36.7309703
   8.8403188  33.4336189  25.6064078   8.8173877  33.5323877  24.6545961
   9.1503825  34.2801340  25.9281244  11.4990566  35.4912344  29.7210692
  12.4533820  35.4596287  29.6540624  11.3003090  35.0302968  30.5360918
  12.0889948  34.0613460  32.2881490  12.9082837  34.5557539  32.3116327
  12.3626756  33.1445429  32.2599057  21.8456545  26.4524213  21.6509445
  20.9582400  26.7373863  21.4329640  22.2610534  26.2917976  20.8036722
  25.1971081  26.4770734  25.3663785  25.9731471  26.9667186  25.6388402
  24.4719215  26.9028788  25.8235654  27.6343639  27.1898353  26.4237725
  28.2288130  26.9494089  25.7131034  27.7070223  26.4705483  27.0511262
   9.8540795  41.0331964  26.7380890   9.7195263  40.2732365  26.1718888
   9.4372857  41.7572864  26.2709679  20.9899758  36.2168887  15.7457465
  21.6935608  36.4218890  16.3615121  20.2662407  36.7845649  16.0106549
  21.8197568  31.9678749  21.8659736  21.7632770  32.4247300  21.0267368
  22.3725911  31.2069433  21.6882578  25.6302374  27.7568480  22.6909855
  25.3739309  27.3565116  23.5218063  25.0055242  28.4712274  22.5659994
  29.9414712  30.4964554  25.1981147  29.3814270  30.5657743  25.9712709
  29.3358216  30.3205538  24.4780643  13.0109921  41.9301281  26.9499333
  12.8942305  42.8746713  26.8478023  12.1902367  41.6274842  27.3385132
  22.8986456  36.6551417  17.7955926  23.7332059  36.2232615  17.6133400
  22.7370798  36.4833430  18.7232820  22.5532348  33.1583530  19.1612265
  22.4981152  32.9927801  18.2200709  21.9278403  33.8659563  19.3174455
   7.3424863  28.3951594  32.9873687   7.9883726  27.8850548  33.4760912
   7.1342014  29.1320276  33.5617112  19.8678255  35.4632442  38.4865828
  20.7369415  35.6373094  38.1252463  19.3885006  36.2826859  38.3641557
  15.8628473  22.6591639  18.7397583  15.8507143  23.6033479  18.8965854
  16.7551895  22.4761784  18.4457044  14.0364435  42.5829543  30.1655261
  14.9391682  42.6153153  30.4821756  13.8101805  41.6529994  30.1801597
  15.7918037  41.3360529  26.8265340  14.8413668  41.3362391  26.7129712
  16.0950523  40.5893264  26.3101374  19.6780593  19.2534415  22.9943520
  18.9112988  18.6992902  23.1400202  20.0891298  19.3256284  23.8557672
  11.6822354  25.5419211  37.0848701  12.5453815  25.1856016  37.2952026
  11.1087764  25.2033106  37.7724106  31.5270731  47.1721068  27.8911102
  32.1649141  47.0527815  27.1874442  31.4091574  48.1201912  27.9499054
  28.3360437  47.1248496  27.8272627  27.9978948  47.0089560  26.9393162
  29.2050205  46.7239661  27.8073633  24.1947253  48.9783972  23.8169518
  23.6312118  48.8873909  23.0485806  24.0799648  48.1583877  24.2972010
  28.8180220  48.2783347  33.7858832  28.8068861  47.8836146  32.9139336
  28.9800859  47.5449420  34.3792604  21.7411685  50.4735164  26.6553738
  22.5332976  50.1325988  26.2400038  21.9808335  50.5830139  27.5755892
  29.7746811  52.6454940  19.1283983  29.1234791  53.2309020  18.7417997
  30.5691174  53.1761135  19.1879020  23.7002438  49.7344077  19.5271117
  24.4733314  49.1873064  19.3883993  24.0527837  50.5988326  19.7385579
  25.5387481  51.0620459  32.7338016  25.2477347  51.9666090  32.6184683
  26.1744465  51.1036987  33.4482086  26.4643688  48.4397308  29.3239376
  27.0607260  48.2153330  28.6096339  26.5218659  47.6982053  29.9264824
  26.0368716  45.8936743  17.1589567  26.2894237  45.3718264  16.3973030
  25.0993275  45.7302889  17.2616251  31.0811999  44.8972522  24.9664310
  31.8675088  44.4791945  24.6154727  31.3450703  45.8018614  25.1345959
  31.2522076  50.3345372  19.6652967  30.6167909  50.4079998  20.3773872
  30.9219483  50.9238971  18.9872046  36.4820426  44.8347755  25.8697289
  37.2145598  44.2646972  26.1035118  35.7259782  44.4469355  26.3103794
  25.7565005  47.7964849  19.3613942  25.6401263  47.1209752  20.0295026
  25.8667265  47.3097223  18.5446095  28.0996546  47.2574996  23.0660631
  27.7354753  46.7305617  23.7773553  28.9563662  46.8673465  22.8927117
  34.0045847  38.5469329  30.3291897  33.6729171  39.4164740  30.1053112
  33.4091460  38.2305613  31.0085928  27.7402033  42.2864896  18.0621980
  27.9076435  43.1545132  18.4292451  27.5499202  42.4492178  17.1383269
  30.4977366  50.7481875  29.7287810  30.1978089  51.6506914  29.6203617
  30.1528426  50.4814058  30.5808963  23.9489848  47.1995672  25.7624515
  23.0240344  47.0671886  25.9702206  24.1974261  47.9789891  26.2594457
  33.8974510  43.2664415  27.4085247  32.9891387  43.1979823  27.1144008
  33.8462106  43.7436360  28.2367073  27.7191254  44.7422553  19.0468647
  27.5990879  45.1879604  19.8854127  27.0243842  45.0907871  18.4882185
  21.3098659  46.8428945  26.5968304  21.4391040  47.0963424  27.5107715
  20.6296110  47.4356653  26.2772959  25.4798146  57.5126195  22.6958778
  25.4022176  58.4634020  22.7747258  24.8759790  57.1672068  23.3533704
  27.9715376  44.6854061  35.3520145  27.1948710  45.2447981  35.3423009
  28.6105939  45.1710844  35.8735015  35.7636156  41.4680853  29.1863121
  35.1210537  41.7613387  28.5402916  35.2591085  41.3533774  29.9916318
  33.4176320  45.2144027  19.8748981  34.3294176  45.4471413  19.6996678
  32.9085967  45.7981071  19.3124059  26.2261748  47.4939514  34.9138112
  26.9676432  48.0324558  34.6372935  25.5198733  48.1205803  35.0709664
  31.7017088  49.6368654  33.5110273  32.1100444  49.1951065  32.7664906
  30.9794349  49.0621282  33.7644466  28.0548158  44.5741261  30.8843830
  28.9009353  44.9980675  31.0278479  27.9946795  43.9174885  31.5782393
  32.0245902  50.1969845  27.2662562  31.3954765  50.3615559  26.5638630
  31.6371564  50.6111455  28.0373526  35.9035134  51.1324283  24.6206926
  35.2186172  51.5123184  24.0703959  35.9878984  51.7419610  25.3538874
  31.2047603  42.2345630  32.5425004  30.9608535  42.9887690  32.0059280
  31.4807534  42.6130977  33.3772251  33.1586066  48.7784242  31.2202269
  33.3702961  49.4216002  30.5436650  33.1115814  47.9446558  30.7524199
  30.7612295  41.3902063  28.1238842  29.8996774  41.6883316  28.4155579
  30.7874729  41.6072461  27.1919874  27.5773864  49.9344253  24.5312647
  28.0412210  50.2131956  23.7417270  27.3130662  49.0327698  24.3485738
  24.4697945  49.4815735  27.4692410  25.0399302  49.9103003  26.8309895
  25.0606057  49.1998319  28.1676596  26.5142750  46.0567405  21.3402212
  27.2166794  46.5088449  21.8076139  26.1823379  45.4151224  21.9682105
  24.9623112  44.6479162  35.7153422  24.3321772  45.3295443  35.9488819
  24.8559200  44.5362244  34.7706560  20.2568084  44.3150958  26.6419346
  19.4667138  44.5708487  26.1659457  20.7479332  45.1299296  26.7471386
  34.2731894  51.6556197  29.3924627  35.0949337  51.2536385  29.1107308
  34.2694297  51.5524431  30.3440743  22.2082830  44.6795537  23.6002823
  21.4113993  44.7914232  24.1186318  21.9808422  45.0182190  22.7343713
  28.0388497  51.2040241  31.5485337  28.1032930  51.6660648  32.3843509
  27.3299421  50.5737606  31.6767647  18.5405787  44.5681449  29.0734337
  18.7913826  45.4528459  29.3391913  19.0765336  44.3886050  28.3009429
  42.3637887  47.9994946  25.7409598  41.6101595  47.4302344  25.5853603
  42.4985428  47.9657610  26.6880233  27.7536515  52.8708348  21.4164318
  27.6182190  53.7159884  21.8449165  28.2946327  53.0727626  20.6530251
  21.2065912  50.3883786  21.9892243  21.7190433  51.1827036  22.1397807
  21.8588625  49.6910077  21.9225844  23.0160797  53.5049542  24.0714996
  23.1927425  54.4267507  23.8835980  23.8117630  53.1907962  24.5009376
  22.3013154  45.5514174  33.9477159  22.1866669  44.6499432  34.2484258
  21.4457671  45.7977871  33.5961976  29.3804991  53.4931915  35.5464660
  28.9368845  52.7068293  35.2285564  30.0422205  53.6811065  34.8808550
  24.1392112  55.0227716  30.0725338  24.6899538  54.8944780  29.3002332
  23.3003588  55.3222605  29.7220231  27.9359283  51.2878844  34.4169569
  28.4687620  50.5267132  34.1868877  27.4073365  50.9952496  35.1593724
  31.1028978  36.3938910  29.9463211  30.7593248  37.2840552  29.8702322
  31.4707941  36.2040568  29.0832796  19.1714829  48.7172440  22.7651813
  20.0090051  49.1269449  22.5485521  19.3493097  47.7771883  22.7352007
  31.0679261  46.3847521  18.4535646  30.5525885  47.1552126  18.6924034
  30.7956570  45.7112657  19.0768708  28.6526372  41.2297222  23.5120885
  27.7967969  40.8404072  23.3326523  29.0653324  41.3089183  22.6520670
  30.1825519  38.7643565  27.9112444  29.6790314  38.7273700  27.0980250
  30.4756126  39.6736308  27.9709101  26.4268405  38.8482295  26.9178626
  27.2921401  38.6525104  26.5584515  26.4945914  38.6192647  27.8447983
  36.0413535  49.1379876  20.3888820  35.2642978  48.7991035  19.9443982
  36.7205016  49.1432499  19.7143785  30.8565564  44.2574613  20.2795427
  30.5515700  44.5720762  21.1305571  31.8096006  44.3356033  20.3222760
  29.3011996  50.4164837  21.9288381  28.7733358  49.6817596  21.6161619
  28.7999499  51.1939513  21.6828350  34.2804842  48.6113857  27.0455428
  33.6228517  49.3013118  27.1335556  35.0845241  49.0010289  27.3889414
  24.0330724  41.0784503  24.2894993  24.6074476  40.8559684  23.5568186
  24.6201706  41.1473197  25.0423594  33.0910301  46.9658230  25.0959369
  33.6042183  47.5988222  25.5981079  33.7411525  46.3659425  24.7302729
  24.3600311  43.1088964  18.3090878  23.5237623  43.4463650  18.6300153
  24.2205081  42.9737944  17.3718015  26.3353391  37.9525752  23.0170062
  25.6817804  37.6374769  22.3926677  26.2933866  37.3301492  23.7429885
  27.4464596  48.2345047  14.9323354  26.5391658  48.0034300  15.1314503
  27.9435628  47.4382666  15.1197336  30.3532675  56.9442554  17.8520041
  29.6794374  57.2474251  18.4604998  30.7398497  57.7471634  17.5025498
  29.5691132  44.4407685  27.3417710  28.6513693  44.6622632  27.1839398
  29.9851275  44.5153996  26.4829417  30.3526180  45.8399101  22.4720390
  31.0997999  46.3520498  22.1627512  30.6217769  45.5183154  23.3324784
  28.6252830  48.3357642  19.4547344  27.7164049  48.0516674  19.5519814
  28.6547914  48.7556720  18.5950651  33.8572097  51.9464231  23.2238512
  33.4034424  51.1055141  23.2803702  33.2266064  52.5825630  23.5613292
  32.8005017  42.8756217  24.4539179  32.0627774  42.3633603  24.7849422
  33.0531790  42.4356599  23.6422456  32.3005036  53.7840728  24.1588330
  32.5928011  54.3445785  23.4400696  32.8103657  54.0769289  24.9141489
  32.9016644  35.6532469  25.0480949  33.2075521  34.7929833  24.7606864
  33.6269249  36.2450089  24.8479943  19.1941000  46.0563156  23.4362547
  18.9965400  45.4632516  22.7113613  18.6387664  45.7515366  24.1538485
  27.1737724  45.9486262  25.5557140  27.2286334  44.9960099  25.4799616
  26.3628926  46.1045701  26.0398438  28.3228918  49.8766385  16.7935423
  27.8848348  49.1602244  16.3341060  29.0639358  50.1042500  16.2320514
  25.1130084  44.5663322  23.3147519  24.2997949  44.8657493  23.7212711
  25.6089078  44.1719011  24.0322001  27.2638662  54.5621079  25.2481783
  27.2214840  54.7881925  24.3190315  28.1801360  54.3284454  25.3967584
  30.7104295  45.0305146  32.1462413  31.0653683  45.2576620  33.0056878
  31.3576427  45.3623523  31.5239668  36.4402032  48.1523582  22.8511742
  36.3019931  48.3425178  21.9232931  36.0838251  48.9142965  23.3079793
  24.6044159  42.1381678  28.9308754  25.2443538  41.9970437  28.2331717
  23.7721689  41.8516191  28.5547356  36.4671412  50.2200109  27.8623013
  36.9007919  50.1275398  28.7106067  37.1802993  50.1957610  27.2243029
  25.3804462  51.4384108  25.0443746  26.1745061  50.9434428  24.8426321
  24.6696155  50.9101971  24.6811452  30.1999307  53.8202203  29.3956114
  30.2536329  54.3893140  30.1633830  29.3314088  53.9904089  29.0310151
  21.6887226  45.5827190  21.1203499  20.7584814  45.5211645  21.3373461
  21.7844698  45.0603142  20.3240140  21.6072775  42.1082003  23.7081740
  21.8679592  43.0227336  23.5990901  22.4289947  41.6406445  23.8578353
  23.0797700  43.5219760  30.8780565  23.7520754  43.3137122  30.2293214
  22.2527487  43.3241846  30.4385797  37.3286962  50.2623810  30.3955898
  37.5222852  51.1669621  30.6415173  37.2287580  49.8031229  31.2294484
  28.9823272  40.1481701  32.8946226  28.3351187  40.8471650  32.8010702
  29.7524288  40.5817845  33.2622474  29.1587407  47.9862466  30.9543046
  30.0879467  48.1373625  30.7812013  28.7378437  48.0746486  30.0991692
  27.9575738  52.0113130  28.7241583  27.8186824  51.6431914  29.5967521
  27.1690335  52.5260769  28.5525541  28.5523890  57.1122226  20.0667120
  28.7275646  56.6410270  20.8812742  27.8656678  57.7387993  20.2948380
  29.5080954  51.3894733  26.1130421  29.1730786  51.3495503  27.0088071
  29.0084899  50.7239449  25.6400831  23.4825198  46.7962363  31.6383002
  23.3444995  46.0642601  32.2394541  24.3930121  46.7071263  31.3567190
  32.4440145  48.7350767  16.3867481  31.8269316  48.0097595  16.2900533
  31.9756634  49.4960127  16.0434555  26.1107498  46.5082322  31.1266682
  26.8207117  45.8675514  31.0853300  26.0676806  46.7595217  32.0492863
  24.8236432  43.4947540  32.9462321  24.2873789  43.0438278  33.5983918
  24.2353141  43.6293449  32.2032786  23.1184976  60.2611589  26.8406980
  23.3581574  60.8930113  27.5185998  22.2754172  59.9099629  27.1272339
  24.2338691  42.9536191  15.5088785  23.3568157  42.8324992  15.1451032
  24.7096444  42.1622270  15.2567674  15.7540831  47.7413351  25.6030292
  16.4411871  47.4275081  25.0151307  15.5988960  48.6454716  25.3297543
  20.5575553  42.6303548  30.0315316  20.4733742  42.0229217  29.2965726
  19.7358260  43.1212566  30.0324812  27.6312838  56.0690712  29.2448484
  27.5583009  56.8745683  29.7567788  27.1890231  56.2682677  28.4196505
  27.4202617  55.3062482  22.7551305  26.6370139  55.8484162  22.8489530
  28.1195362  55.8236461  23.1545547  30.7299267  41.1157111  25.3985511
  31.2267967  40.3627073  25.0786581  29.9586249  41.1521428  24.8328720
  38.5829025  46.8197477  27.0403802  38.5718901  47.7022192  26.6697735
  37.7146404  46.4669027  26.8458339  30.0911521  55.9677546  31.4006642
  30.8039493  56.6025010  31.3282544  29.6001550  56.0641412  30.5846644
  31.8129048  49.8728798  22.9723934  30.8785327  49.9930261  22.8028638
  31.9905716  48.9701265  22.7083944  27.3134236  43.2574494  25.1257195
  26.9432024  42.7045534  25.8138101  27.8093328  42.6532628  24.5732195
  35.2001599  45.7146118  23.5073968  35.6662052  46.5474109  23.4334271
  35.6509100  45.2491099  24.2119227  25.1423435  53.7171989  32.2212213
  25.8432894  54.3508472  32.3741608  24.6718550  54.0586721  31.4607853
  33.2677830  52.0589939  20.5060120  33.5437674  51.9446533  21.4153994
  32.3982329  51.6607424  20.4672293  33.1718262  38.0826705  27.5464870
  32.2581342  38.3130931  27.7147077  33.6011364  38.1665149  28.3978902
  32.9424721  46.2716597  30.0464764  32.2896171  46.5192504  29.3917216
  33.3205100  45.4580735  29.7127241  29.9031894  56.3076290  24.1492934
  30.0854289  55.4897946  24.6120686  30.7264880  56.5243982  23.7117824
  30.2374060  55.2344475  21.4107982  30.7661826  54.7236929  20.7978145
  30.5002280  54.9187005  22.2753515  28.9912294  47.0136408  36.5330801
  28.3152931  46.9130537  37.2033176  29.8139927  46.8575621  36.9966798
  20.7391153  53.2508344  29.1543316  21.3244589  52.5052032  29.2871220
  20.5415991  53.5612301  30.0379980  23.5929808  56.2859592  24.1705758
  22.9240183  56.7705719  23.6869798  23.4542678  56.5328812  25.0849137
  15.3308807  45.8213944  27.8747759  15.3692907  45.2877535  28.6684877
  14.8249100  45.2949150  27.2558736  27.7335076  58.3203335  30.7688417
  28.2853384  58.4834957  31.5337502  28.0741270  58.9107773  30.0968442
  22.7099570  40.6678485  31.3710301  22.7740896  41.5293316  30.9587699
  22.6466690  40.0552487  30.6382660  22.1851842  42.7401617  35.0183336
  22.8123881  42.3578695  35.6320860  21.3279761  42.5215819  35.3839028
  18.9617385  44.5478047  20.9501691  19.2570826  43.6388725  20.8968744
  18.0605421  44.5265786  20.6282693  30.8703464  56.2685311  27.7552099
  30.7454603  55.4675050  27.2463044  31.5282555  56.7631504  27.2666069
  22.4911632  42.6234043  26.9329239  21.7698218  43.2370011  26.7936712
  23.2804888  43.1591808  26.8545885  32.9338372  54.0694331  29.3831649
  31.9868708  53.9499682  29.3109976  33.2821145  53.1816829  29.4657910
  25.2937945  39.9588470  33.2069891  25.8172347  40.2050766  33.9696200
  25.0750279  40.7908504  32.7873028  20.6905227  42.2292144  21.0741016
  20.3617933  41.3489523  20.8916122  21.0444597  42.1739813  21.9617405
  29.9384805  53.8647047  25.5836001  29.7909768  52.9363754  25.7643571
  30.7638299  53.8867138  25.0993076  23.8047050  42.5165114  21.4416493
  24.1443122  43.0451035  20.7195102  24.2519170  42.8545520  22.2175060
  33.5418927  54.6875606  26.6700874  34.4665475  54.4818467  26.5325325
  33.3734231  54.4392007  27.5790215  26.4990491  40.9002165  30.8919561
  26.1587311  40.1009978  31.2940241  25.7929497  41.2003876  30.3196395
  27.1506962  37.9851477  29.3446884  27.9733032  37.5111955  29.2225775
  27.3945026  38.7641961  29.8445571  25.7915197  41.0139736  19.6409786
  26.5123559  41.3920988  19.1373503  25.1680501  41.7328612  19.7444764
  29.9346320  41.7184885  20.5768118  30.1509934  42.6009522  20.2756947
  29.4540387  41.3271098  19.8473760  24.6745541  44.6770598  27.1538863
  24.5290122  44.9910901  28.0463145  24.1970745  45.2955498  26.6009762
  26.5341924  41.6673146  27.2019753  26.5203493  40.7714239  26.8652051
  27.2514352  41.6743809  27.8358039  28.3868055  42.1010486  29.2472880
  28.1285833  43.0227557  29.2457210  27.8553095  41.7040920  29.9373344
  33.3314243  55.2061273  22.0262965  33.5051121  54.6407696  21.2736818
  33.8243135  56.0062168  21.8442455  19.1491203  47.2175942  30.0926524
  18.6044671  47.9935750  30.2246799  20.0270553  47.5646747  29.9345646
  25.9378820  40.5487526  22.4707323  26.0594731  39.6204172  22.6698210
  25.6480862  40.5626212  21.5585638  28.8070010  38.2342436  25.6074043
  28.8291707  38.2981770  24.6526022  29.2238069  37.3946945  25.8014549
  39.1853635  47.9697696  23.6453265  39.6284781  47.2205021  23.2472388
  38.3080145  47.9607832  23.2626997  34.3189416  54.5228037  19.1259864
  35.0140321  55.1434730  19.3447178  34.6612566  53.6723389  19.4012242
  19.9357225  46.3445838  32.9856681  19.1938961  46.4928474  33.5721312
  19.6149969  46.6054104  32.1223431  36.2180839  51.9727743  20.6547194
  36.7432163  52.3115016  19.9296514  36.1303192  51.0374758  20.4710329
  27.8800888  55.8861817  32.7837071  28.1888014  55.6410963  33.6559771
  28.6776370  56.0908455  32.2955941  27.9021500  58.0399726  25.0142448
  27.4626490  57.5476105  25.7075304  28.6529617  57.4972694  24.7734523
  20.3813839  54.2311267  25.0167076  21.2071859  53.9315039  24.6365719
  20.0307891  53.4618890  25.4656864  25.3495372  53.5837735  27.0864749
  24.7275381  52.9208440  26.7866977  26.0200239  53.6098867  26.4038397
  18.5822444  52.1497594  25.9756009  17.7454352  51.7219768  25.7940011
  18.5546089  52.3430037  26.9126801  25.4219899  42.0619523  36.6797255
  25.4708055  42.9381646  36.2975025  25.9642414  41.5196916  36.1068899
  24.9108879  52.1341659  20.5623210  25.0596999  52.8177123  19.9089883
  25.7175322  52.1146749  21.0772666  27.6519188  42.8150896  33.4343614
  26.7822497  43.1084462  33.1626203  27.8878668  43.3991341  34.1550878
  38.7286499  49.4402934  26.0375713  39.5633391  49.8792738  26.2013273
  38.8645628  48.9641588  25.2183959  22.6661512  48.1606836  21.5684279
  22.4207554  47.2569166  21.7664489  22.8357426  48.1623987  20.6263757
  30.3558222  39.0330513  30.9509034  30.8740166  39.7691540  30.6255523
  30.0013355  39.3394506  31.7855794  21.9357159  43.8935194  19.0670440
  21.2426404  43.9679549  18.4110476  21.6908911  43.1295538  19.5891957
  30.6070816  35.4530795  26.4709931  30.8872570  34.7853984  27.0970358
  31.3921423  35.6459891  25.9584595  28.4104284  54.6289789  18.0334957
  27.8378251  55.2479976  17.5805429  28.9837078  55.1789151  18.5674879
  34.4779674  43.8748429  30.2181506  35.4297097  43.9746527  30.2393730
  34.3083125  43.0826698  30.7279590  32.4994054  40.9604012  30.4040907
  31.9043986  41.2409025  29.7087396  32.2143750  41.4497913  31.1757648
  31.6301544  54.9126939  19.1643540  32.5632217  54.8472501  19.3676415
  31.5424757  55.7483206  18.7058072  34.2589561  54.2292810  16.1247487
  34.1803192  53.8952673  17.0183245  35.0799228  54.7214578  16.1238959
  36.9567752  47.0954549  29.3323806  36.9244072  46.1570550  29.5183490
  37.5668376  47.1738586  28.5989631  28.7951083  45.9650602  15.3751010
  29.7410188  45.8356810  15.4439428  28.4165328  45.2265264  15.8520438
  37.1062241  43.8865592  29.3782089  36.5901289  43.1024049  29.1912018
  37.9902189  43.5584309  29.5428608  34.7672967  37.6306608  25.3377902
  34.5697789  37.3221696  26.2221234  35.3772673  38.3568247  25.4675831
  42.7744302  48.1570556  28.4729843  43.5047690  47.8955844  29.0337546
  42.1651247  47.4199278  28.5131911  40.8559599  46.2978418  29.0704294
  40.1292763  46.1634383  28.4620785  40.4406886  46.6055247  29.8761012
  28.6789775  50.0168348  36.8351667  29.5992785  50.1946947  37.0291713
  28.6439358  49.0724393  36.6831366  26.9794000  43.8900578  15.3105895
  26.0725455  43.5933691  15.3868609  27.2569981  43.5930396  14.4440181
  17.8971940  45.2106942  25.7604941  17.5774725  44.3572250  25.4679315
  17.3505369  45.4255520  26.5162909  21.6751848  47.9269383  29.4774448
  21.8937858  48.8586491  29.4962482  22.0877622  47.5677357  30.2629252
  28.5956066  38.4337468  21.4650136  27.7856794  38.0884553  21.8405382
  29.2840483  38.1245012  22.0537748  30.5246614  37.5115515  23.0874433
  31.0777653  37.9310968  23.7464456  30.7616700  36.5851263  23.1297389
  26.5479713  43.5002588  38.8677197  26.4476440  44.4496945  38.7989288
  26.3301255  43.1720827  37.9953267  25.7492785  40.7487514  15.4517874
  26.6111949  41.0742412  15.7113692  25.9343129  39.9619009  14.9390940
  17.7660200  48.8309853  27.7298063  17.0723672  48.4163806  27.2168017
  18.5133191  48.8730390  27.1331482  33.9025421  39.6216040  22.5953097
  33.3224090  40.2800844  22.2131150  33.6361354  38.7993385  22.1840515
  32.3528988  39.0221098  24.7974418  32.8528766  39.1337632  23.9888736
  32.9964595  38.7182151  25.4375226  26.4110983  46.9299727  37.6842259
  25.9278065  47.7300087  37.8906148  26.4971922  46.9407672  36.7309703
  19.6796943  48.7628107  25.6064078  19.6567631  48.8615794  24.6545961
  19.9897579  49.6093258  25.9281244  22.3384321  50.8204262  29.7210692
  23.2927574  50.7888204  29.6540624  22.1396844  50.3594886  30.5360918
  22.9283703  49.3905378  32.2881490  23.7476592  49.8849457  32.3116327
  23.2020511  48.4737346  32.2599057  32.6850299  41.7816130  21.6509445
  31.7976154  42.0665781  21.4329640  33.1004288  41.6209894  20.8036722
  36.0364835  41.8062651  25.3663785  36.8125225  42.2959104  25.6388402
  35.3112969  42.2320706  25.8235654  38.4737394  42.5190271  26.4237725
  39.0681885  42.2786007  25.7131034  38.5463978  41.7997401  27.0511262
  20.6934550  56.3623881  26.7380890  20.5589018  55.6024282  26.1718888
  20.2766612  57.0864781  26.2709679  31.8293513  51.5460805  15.7457465
  32.5329363  51.7510808  16.3615121  31.1056161  52.1137567  16.0106549
  32.6591323  47.2970666  21.8659736  32.6026524  47.7539218  21.0267368
  33.2119665  46.5361351  21.6882578  36.4696129  43.0860398  22.6909855
  36.2133063  42.6857034  23.5218063  35.8448997  43.8004192  22.5659994
  40.7808467  45.8256471  25.1981147  40.2208025  45.8949661  25.9712709
  40.1751970  45.6497456  24.4780643  23.8503676  57.2593199  26.9499333
  23.7336060  58.2038631  26.8478023  23.0296122  56.9566760  27.3385132
  33.7380210  51.9843334  17.7955926  34.5725814  51.5524533  17.6133400
  33.5764553  51.8125348  18.7232820  33.3926102  48.4875448  19.1612265
  33.3374906  48.3219719  18.2200709  32.7672158  49.1951480  19.3174455
  18.1818617  43.7243512  32.9873687  18.8277481  43.2142466  33.4760912
  17.9735768  44.4612194  33.5617112  30.7072009  50.7924359  38.4865828
  31.5763169  50.9665012  38.1252463  30.2278761  51.6118776  38.3641557
  26.7022228  37.9883557  18.7397583  26.6900898  38.9325396  18.8965854
  27.5945650  37.8053702  18.4457044  24.8758190  57.9121460  30.1655261
  25.7785436  57.9445071  30.4821756  24.6495560  56.9821911  30.1801597
  26.6311792  56.6652447  26.8265340  25.6807423  56.6654309  26.7129712
  26.9344278  55.9185182  26.3101374  30.5174347  34.5826333  22.9943520
  29.7506743  34.0284820  23.1400202  30.9285052  34.6548202  23.8557672
  22.5216108  40.8711129  37.0848701  23.3847570  40.5147934  37.2952026
  21.9481519  40.5325024  37.7724106  42.3664485  62.5012985  27.8911102
  43.0042895  62.3819733  27.1874442  42.2485328  63.4493829  27.9499054
  39.1754191  62.4540413  27.8272627  38.8372703  62.3381478  26.9393162
  40.0443960  62.0531579  27.8073633  35.0341007  64.3075890  23.8169518
  34.4705872  64.2165827  23.0485806  34.9193402  63.4875794  24.2972010
  39.6573974  63.6075265  33.7858832  39.6462615  63.2128063  32.9139336
  39.8194614  62.8741338  34.3792604  32.5805439  65.8027081  26.6553738
  33.3726731  65.4617906  26.2400038  32.8202089  65.9122057  27.5755892
  40.6140566  67.9746858  19.1283983  39.9628546  68.5600938  18.7417997
  41.4084929  68.5053052  19.1879020  34.5396193  65.0635995  19.5271117
  35.3127069  64.5164982  19.3883993  34.8921592  65.9280244  19.7385579
  36.3781236  66.3912377  32.7338016  36.0871102  67.2958008  32.6184683
  37.0138220  66.4328905  33.4482086  37.3037442  63.7689225  29.3239376
  37.9001015  63.5445248  28.6096339  37.3612414  63.0273971  29.9264824
  36.8762471  61.2228661  17.1589567  37.1287991  60.7010182  16.3973030
  35.9387030  61.0594806  17.2616251  41.9205754  60.2264439  24.9664310
  42.7068843  59.8083862  24.6154727  42.1844458  61.1310531  25.1345959
  42.0915831  65.6637289  19.6652967  41.4561664  65.7371916  20.3773872
  41.7613237  66.2530888  18.9872046  47.3214181  60.1639672  25.8697289
  48.0539353  59.5938889  26.1035118  46.5653536  59.7761273  26.3103794
  36.5958760  63.1256767  19.3613942  36.4795018  62.4501670  20.0295026
  36.7061019  62.6389141  18.5446095  38.9390300  62.5866914  23.0660631
  38.5748508  62.0597535  23.7773553  39.7957416  62.1965383  22.8927117
  44.8439601  53.8761246  30.3291897  44.5122926  54.7456657  30.1053112
  44.2485214  53.5597530  31.0085928  38.5795787  57.6156814  18.0621980
  38.7470190  58.4837050  18.4292451  38.3892957  57.7784095  17.1383269
  41.3371121  66.0773792  29.7287810  41.0371844  66.9798831  29.6203617
  40.9922180  65.8105976  30.5808963  34.7883602  62.5287589  25.7624515
  33.8634099  62.3963803  25.9702206  35.0368015  63.3081809  26.2594457
  44.7368264  58.5956333  27.4085247  43.8285142  58.5271741  27.1144008
  44.6855860  59.0728278  28.2367073  38.5585008  60.0714471  19.0468647
  38.4384634  60.5171522  19.8854127  37.8637597  60.4199789  18.4882185
  32.1492413  62.1720863  26.5968304  32.2784794  62.4255342  27.5107715
  31.4689864  62.7648571  26.2772959  36.3191900  72.8418113  22.6958778
  36.2415930  73.7925938  22.7747258  35.7153544  72.4963985  23.3533704
  38.8109130  60.0145978  35.3520145  38.0342464  60.5739898  35.3423009
  39.4499693  60.5002761  35.8735015  46.6029911  56.7972771  29.1863121
  45.9604291  57.0905304  28.5402916  46.0984839  56.6825691  29.9916318
  44.2570074  60.5435944  19.8748981  45.1687931  60.7763331  19.6996678
  43.7479722  61.1272988  19.3124059  37.0655503  62.8231432  34.9138112
  37.8070187  63.3616476  34.6372935  36.3592488  63.4497720  35.0709664
  42.5410842  64.9660572  33.5110273  42.9494198  64.5242983  32.7664906
  41.8188104  64.3913200  33.7644466  38.8941912  59.9033179  30.8843830
  39.7403107  60.3272592  31.0278479  38.8340550  59.2466803  31.5782393
  42.8639657  65.5261763  27.2662562  42.2348519  65.6907477  26.5638630
  42.4765319  65.9403372  28.0373526  46.7428889  66.4616201  24.6206926
  46.0579927  66.8415102  24.0703959  46.8272738  67.0711527  25.3538874
  42.0441358  57.5637547  32.5425004  41.8002289  58.3179608  32.0059280
  42.3201288  57.9422895  33.3772251  43.9979820  64.1076160  31.2202269
  44.2096716  64.7507919  30.5436650  43.9509569  63.2738476  30.7524199
  41.6006049  56.7193980  28.1238842  40.7390528  57.0175234  28.4155579
  41.6268484  56.9364379  27.1919874  38.4167619  65.2636171  24.5312647
  38.8805964  65.5423874  23.7417270  38.1524417  64.3619615  24.3485738
  35.3091700  64.8107652  27.4692410  35.8793057  65.2394921  26.8309895
  35.8999812  64.5290237  28.1676596  37.3536505  61.3859323  21.3402212
  38.0560548  61.8380367  21.8076139  37.0217133  60.7443142  21.9682105
  35.8016866  59.9771080  35.7153422  35.1715527  60.6587361  35.9488819
  35.6952954  59.8654161  34.7706560  31.0961839  59.6442876  26.6419346
  30.3060893  59.9000404  26.1659457  31.5873086  60.4591214  26.7471386
  45.1125648  66.9848115  29.3924627  45.9343092  66.5828302  29.1107308
  45.1088051  66.8816349  30.3440743  33.0476584  60.0087455  23.6002823
  32.2507747  60.1206149  24.1186318  32.8202176  60.3474107  22.7343713
  38.8782252  66.5332158  31.5485337  38.9426684  66.9952566  32.3843509
  38.1693176  65.9029523  31.6767647  29.3799542  59.8973366  29.0734337
  29.6307580  60.7820376  29.3391913  29.9159090  59.7177968  28.3009429
  53.2031641  63.3286863  25.7409598  52.4495350  62.7594262  25.5853603
  53.3379183  63.2949528  26.6880233  38.5930269  68.2000266  21.4164318
  38.4575944  69.0451802  21.8449165  39.1340082  68.4019543  20.6530251
  32.0459667  65.7175704  21.9892243  32.5584187  66.5118954  22.1397807
  32.6982380  65.0201994  21.9225844  33.8554551  68.8341460  24.0714996
  34.0321180  69.7559425  23.8835980  34.6511385  68.5199879  24.5009376
  33.1406908  60.8806092  33.9477159  33.0260423  59.9791349  34.2484258
  32.2851426  61.1269789  33.5961976  40.2198746  68.8223832  35.5464660
  39.7762600  68.0360211  35.2285564  40.8815959  69.0102983  34.8808550
  34.9785867  70.3519634  30.0725338  35.5293292  70.2236697  29.3002332
  34.1397343  70.6514523  29.7220231  42.3179984  69.1026632  33.5746061
  42.2998459  69.9235513  33.0826330  43.2399904  68.9780707  33.7996202
  38.7753038  66.6170762  34.4169569  39.3081375  65.8559050  34.1868877
  38.2467119  66.3244414  35.1593724  41.9422733  51.7230828  29.9463211
  41.5987002  52.6132469  29.8702322  42.3101696  51.5332485  29.0832796
  30.0108584  64.0464358  22.7651813  30.8483806  64.4561366  22.5485521
  30.1886851  63.1063800  22.7352007  41.9073016  61.7139439  18.4535646
  41.3919639  62.4844043  18.6924034  41.6350324  61.0404575  19.0768708
  39.4920127  56.5589140  23.5120885  38.6361723  56.1695990  23.3326523
  39.9047078  56.6381100  22.6520670  41.0219273  54.0935483  27.9112444
  40.5184069  54.0565618  27.0980250  41.3149880  55.0028226  27.9709101
  37.2662159  54.1774213  26.9178626  38.1315156  53.9817021  26.5584515
  37.3339668  53.9484564  27.8447983  46.8807290  64.4671793  20.3888820
  46.1036733  64.1282953  19.9443982  47.5598771  64.4724417  19.7143785
  41.6959319  59.5866531  20.2795427  41.3909454  59.9012680  21.1305571
  42.6489761  59.6647951  20.3222760  40.1405751  65.7456754  21.9288381
  39.6127112  65.0109514  21.6161619  39.6393253  66.5231431  21.6828350
  45.1198597  63.9405775  27.0455428  44.4622271  64.6305036  27.1335556
  45.9238996  64.3302207  27.3889414  34.8724478  56.4076420  24.2894993
  35.4468230  56.1851602  23.5568186  35.4595461  56.4765115  25.0423594
  43.9304055  62.2950147  25.0959369  44.4435937  62.9280139  25.5981079
  44.5805279  61.6951343  24.7302729  35.1994065  58.4380882  18.3090878
  34.3631378  58.7755568  18.6300153  35.0598835  58.3029861  17.3718015
  37.1747146  53.2817669  23.0170062  36.5211558  52.9666687  22.3926677
  37.1327620  52.6593410  23.7429885  38.2858351  63.5636964  14.9323354
  37.3785413  63.3326218  15.1314503  38.7829383  62.7674584  15.1197336
  41.1926430  72.2734472  17.8520041  40.5188128  72.5766168  18.4604998
  41.5792252  73.0763552  17.5025498  40.4084886  59.7699603  27.3417710
  39.4907448  59.9914550  27.1839398  40.8245030  59.8445913  26.4829417
  41.1919934  61.1691019  22.4720390  41.9391753  61.6812416  22.1627512
  41.4611524  60.8475071  23.3324784  39.4646584  63.6649559  19.4547344
  38.5557804  63.3808592  19.5519814  39.4941668  64.0848638  18.5950651
  44.6965852  67.2756149  23.2238512  44.2428179  66.4347059  23.2803702
  44.0659818  67.9117547  23.5613292  43.6398771  58.2048135  24.4539179
  42.9021528  57.6925521  24.7849422  43.8925545  57.7648516  23.6422456
  43.1398791  69.1132646  24.1588330  43.4321765  69.6737703  23.4400696
  43.6497412  69.4061207  24.9141489  43.7410399  50.9824387  25.0480949
  44.0469275  50.1221750  24.7606864  44.4663003  51.5742007  24.8479943
  30.0334755  61.3855073  23.4362547  29.8359154  60.7924434  22.7113613
  29.4781419  61.0807284  24.1538485  38.0131478  61.2778180  25.5557140
  38.0680088  60.3252016  25.4799616  37.2022680  61.4337619  26.0398438
  39.1622672  65.2058303  16.7935423  38.7242102  64.4894162  16.3341060
  39.9033113  65.4334418  16.2320514  35.9523838  59.8955240  23.3147519
  35.1391704  60.1949410  23.7212711  36.4482832  59.5010928  24.0322001
  38.1032416  69.8912997  25.2481783  38.0608595  70.1173843  24.3190315
  39.0195115  69.6576371  25.3967584  41.5498050  60.3597064  32.1462413
  41.9047438  60.5868537  33.0056878  42.1970181  60.6915441  31.5239668
  47.2795787  63.4815500  22.8511742  47.1413685  63.6717096  21.9232931
  46.9232006  64.2434883  23.3079793  35.4437913  57.4673595  28.9308754
  36.0837292  57.3262354  28.2331717  34.6115444  57.1808109  28.5547356
  47.3065166  65.5492027  27.8623013  47.7401673  65.4567316  28.7106067
  48.0196747  65.5249528  27.2243029  36.2198217  66.7676026  25.0443746
  37.0138815  66.2726346  24.8426321  35.5089909  66.2393889  24.6811452
  41.0393061  69.1494121  29.3956114  41.0930084  69.7185057  30.1633830
  40.1707843  69.3196006  29.0310151  32.5280980  60.9119107  21.1203499
  31.5978568  60.8503563  21.3373461  32.6238452  60.3895060  20.3240140
  32.4466529  57.4373920  23.7081740  32.7073347  58.3519253  23.5990901
  33.2683702  56.9698363  23.8578353  33.9191455  58.8511677  30.8780565
  34.5914508  58.6429039  30.2293214  33.0921241  58.6533763  30.4385797
  48.1680716  65.5915728  30.3955898  48.3616606  66.4961538  30.6415173
  48.0681334  65.1323147  31.2294484  39.8217027  55.4773618  32.8946226
  39.1744942  56.1763568  32.8010702  40.5918042  55.9109762  33.2622474
  43.2295825  65.7422470  35.9696779  43.0781331  65.5133022  35.0526863
  43.2200504  66.6993072  35.9828124  39.9981161  63.3154383  30.9543046
  40.9273221  63.4665543  30.7812013  39.5772191  63.4038404  30.0991692
  38.7969493  67.3405048  28.7241583  38.6580579  66.9723832  29.5967521
  38.0084089  67.8552687  28.5525541  39.3917645  72.4414144  20.0667120
  39.5669401  71.9702187  20.8812742  38.7050433  73.0679910  20.2948380
  40.3474708  66.7186650  26.1130421  40.0124541  66.6787420  27.0088071
  39.8478654  66.0531366  25.6400831  34.3218952  62.1254280  31.6383002
  34.1838750  61.3934519  32.2394541  35.2323875  62.0363180  31.3567190
  43.2833900  64.0642685  16.3867481  42.6663070  63.3389513  16.2900533
  42.8150388  64.8252045  16.0434555  36.9501253  61.8374240  31.1266682
  37.6600871  61.1967432  31.0853300  36.9070561  62.0887134  32.0492863
  44.9388031  68.7741593  34.0473261  44.8800578  68.0900813  33.3803844
  45.3407550  69.5160583  33.5953887  35.6630187  58.8239458  32.9462321
  35.1267544  58.3730196  33.5983918  35.0746895  58.9585366  32.2032786
  33.9578730  75.5903507  26.8406980  34.1975328  76.2222031  27.5185998
  33.1147927  75.2391547  27.1272339  35.0732446  58.2828109  15.5088785
  34.1961912  58.1616910  15.1451032  35.5490199  57.4914187  15.2567674
  44.9405439  66.7381177  32.2787241  44.0532217  66.4007099  32.4013640
  45.5103990  66.0064208  32.5156006  26.5934586  63.0705269  25.6030292
  27.2805626  62.7566999  25.0151307  26.4382714  63.9746633  25.3297543
  31.3969308  57.9595465  30.0315316  31.3127497  57.3521135  29.2965726
  30.5752014  58.4504484  30.0324812  38.4706592  71.3982629  29.2448484
  38.3976764  72.2037601  29.7567788  38.0283985  71.5974595  28.4196505
  38.2596372  70.6354399  22.7551305  37.4763894  71.1776079  22.8489530
  38.9589117  71.1528379  23.1545547  41.5693022  56.4449029  25.3985511
  42.0661721  55.6918991  25.0786581  40.7980003  56.4813345  24.8328720
  49.4222779  62.1489394  27.0403802  49.4112655  63.0314110  26.6697735
  48.5540159  61.7960945  26.8458339  40.9305276  71.2969463  31.4006642
  41.6433248  71.9316928  31.3282544  40.4395304  71.3933329  30.5846644
  42.6522802  65.2020716  22.9723934  41.7179081  65.3222178  22.8028638
  42.8299471  64.2993183  22.7083944  38.1527991  58.5866412  25.1257195
  37.7825778  58.0337452  25.8138101  38.6487083  57.9824545  24.5732195
  46.0395354  61.0438035  23.5073968  46.5055806  61.8766027  23.4334271
  46.4902854  60.5783017  24.2119227  35.9817189  69.0463907  32.2212213
  36.6826649  69.6800390  32.3741608  35.5112304  69.3878638  31.4607853
  44.1071585  67.3881857  20.5060120  44.3831429  67.2738451  21.4153994
  43.2376084  66.9899341  20.4672293  44.0112017  53.4118622  27.5464870
  43.0975096  53.6422849  27.7147077  44.4405118  53.4957066  28.3978902
  43.7818475  61.6008514  30.0464764  43.1289925  61.8484422  29.3917216
  44.1598855  60.7872652  29.7127241  40.7425649  71.6368207  24.1492934
  40.9248043  70.8189863  24.6120686  41.5658635  71.8535900  23.7117824
  41.0767814  70.5636393  21.4107982  41.6055581  70.0528847  20.7978145
  41.3396034  70.2478923  22.2753515  39.8306048  62.3428325  36.5330801
  39.1546685  62.2422455  37.2033176  40.6533682  62.1867539  36.9966798
  31.5784907  68.5800262  29.1543316  32.1638344  67.8343950  29.2871220
  31.3809746  68.8904219  30.0379980  34.4323562  71.6151509  24.1705758
  33.7633938  72.0997637  23.6869798  34.2936432  71.8620730  25.0849137
  26.1702562  61.1505862  27.8747759  26.2086661  60.6169453  28.6684877
  25.6642855  60.6241068  27.2558736  38.5728831  73.6495253  30.7688417
  39.1247139  73.8126874  31.5337502  38.9135024  74.2399691  30.0968442
  33.5493324  55.9970403  31.3710301  33.6134651  56.8585233  30.9587699
  33.4860444  55.3844404  30.6382660  33.0245597  58.0693535  35.0183336
  33.6517636  57.6870612  35.6320860  32.1673516  57.8507737  35.3839028
  43.4239705  68.4756510  36.6237071  43.9679609  69.0886469  36.1292026
  42.8426550  69.0336089  37.1404084  29.8011139  59.8769964  20.9501691
  30.0964581  58.9680643  20.8968744  28.8999175  59.8557704  20.6282693
  41.7097218  71.5977228  27.7552099  41.5848358  70.7966968  27.2463044
  42.3676309  72.0923422  27.2666069  33.3305386  57.9525961  26.9329239
  32.6091972  58.5661928  26.7936712  34.1198642  58.4883726  26.8545885
  43.7732127  69.3986248  29.3831649  42.8262462  69.2791600  29.3109976
  44.1214900  68.5108746  29.4657910  31.5298981  57.5584062  21.0741016
  31.2011687  56.6781441  20.8916122  31.8838352  57.5031731  21.9617405
  40.7778560  69.1938965  25.5836001  40.6303522  68.2655672  25.7643571
  41.6032053  69.2159055  25.0993076  34.6440804  57.8457032  21.4416493
  34.9836877  58.3742953  20.7195102  35.0912925  58.1837438  22.2175060
  44.3812682  70.0167523  26.6700874  45.3059229  69.8110385  26.5325325
  44.2127985  69.7683924  27.5790215  37.3384245  56.2294082  30.8919561
  36.9981065  55.4301895  31.2940241  36.6323251  56.5295793  30.3196395
  37.9900717  53.3143395  29.3446884  38.8126786  52.8403873  29.2225775
  38.2338780  54.0933879  29.8445571  36.6308951  56.3431653  19.6409786
  37.3517314  56.7212906  19.1373503  36.0074255  57.0620530  19.7444764
  40.7740074  57.0476802  20.5768118  40.9903689  57.9301440  20.2756947
  40.2934141  56.6563016  19.8473760  35.5139296  60.0062515  27.1538863
  35.3683876  60.3202818  28.0463145  35.0364499  60.6247416  26.6009762
  37.3735678  56.9965063  27.2019753  37.3597247  56.1006157  26.8652051
  38.0908107  57.0035727  27.8358039  39.2261809  57.4302404  29.2472880
  38.9679587  58.3519474  29.2457210  38.6946850  57.0332838  29.9373344
  44.1707998  70.5353191  22.0262965  44.3444875  69.9699613  21.2736818
  44.6636889  71.3354086  21.8442455  29.9884958  62.5467860  30.0926524
  29.4438426  63.3227668  30.2246799  30.8664308  62.8938664  29.9345646
  36.7772574  55.8779444  22.4707323  36.8988486  54.9496090  22.6698210
  36.4874617  55.8918130  21.5585638  39.6463765  53.5634354  25.6074043
  39.6685462  53.6273687  24.6526022  40.0631824  52.7238863  25.8014549
  50.0247389  63.2989614  23.6453265  50.4678535  62.5496939  23.2472388
  49.1473899  63.2899750  23.2626997  45.1583170  69.8519955  19.1259864
  45.8534075  70.4726648  19.3447178  45.5006321  69.0015306  19.4012242
  30.7750980  61.6737756  32.9856681  30.0332716  61.8220391  33.5721312
  30.4543724  61.9346022  32.1223431  47.0574594  67.3019661  20.6547194
  47.5825918  67.6406933  19.9296514  46.9696946  66.3666676  20.4710329
  38.7194642  71.2153734  32.7837071  39.0281769  70.9702881  33.6559771
  39.5170124  71.4200373  32.2955941  38.7415254  73.3691644  25.0142448
  38.3020245  72.8768023  25.7075304  39.4923371  72.8264612  24.7734523
  31.2207593  69.5603185  25.0167076  32.0465613  69.2606957  24.6365719
  30.8701645  68.7910807  25.4656864  36.1889126  68.9129653  27.0864749
  35.5669136  68.2500358  26.7866977  36.8593993  68.9390785  26.4038397
  29.4216198  67.4789511  25.9756009  28.5848107  67.0511686  25.7940011
  29.3939844  67.6721955  26.9126801  46.7468500  67.9352564  35.9598392
  45.9564043  67.9176703  35.4202892  46.5101854  68.4740858  36.7147429
  46.8666375  64.7845031  33.2731121  46.9164380  64.6195038  34.2146644
  46.7580298  63.9172290  32.8829002  35.7502633  67.4633576  20.5623210
  35.8990754  68.1469041  19.9089883  36.5569077  67.4438666  21.0772666
  44.1570137  60.7675959  34.5890428  45.0580000  60.6282424  34.2974425
  44.2318112  60.9330414  35.5288605  38.4912942  58.1442813  33.4343614
  37.6216252  58.4376380  33.1626203  38.7272423  58.7283258  34.1550878
  48.3684572  67.2041972  33.5173143  48.0769380  67.5671953  34.3536603
  47.7556703  66.4908980  33.3386475  49.5680254  64.7694852  26.0375713
  50.4027145  65.2084656  26.2013273  49.7039383  64.2933505  25.2183959
  46.6171760  62.3274587  31.9853200  47.0925881  62.5202233  31.1772052
  45.6937325  62.3833773  31.7396584  33.5055266  63.4898754  21.5684279
  33.2601308  62.5861084  21.7664489  33.6751181  63.4915904  20.6263757
  41.1951976  54.3622430  30.9509034  41.7133920  55.0983457  30.6255523
  40.8407109  54.6686424  31.7855794  32.7750914  59.2227112  19.0670440
  32.0820159  59.2971467  18.4110476  32.5302666  58.4587455  19.5891957
  41.4464570  50.7822713  26.4709931  41.7266324  50.1145902  27.0970358
  42.2315177  50.9751809  25.9584595  39.2498039  69.9581707  18.0334957
  38.6772006  70.5771894  17.5805429  39.8230833  70.5081069  18.5674879
  45.3173429  59.2040347  30.2181506  46.2690852  59.3038445  30.2393730
  45.1476879  58.4118615  30.7279590  43.3387808  56.2895930  30.4040907
  42.7437740  56.5700943  29.7087396  43.0537505  56.7789831  31.1757648
  42.4695299  70.2418857  19.1643540  43.4025972  70.1764419  19.3676415
  42.3818512  71.0775124  18.7058072  45.0983315  69.5584727  16.1247487
  45.0196947  69.2244591  17.0183245  45.9192982  70.0506495  16.1238959
  47.7961507  62.4246467  29.3323806  47.7637827  61.4862467  29.5183490
  48.4062130  62.5030503  28.5989631  39.6344837  61.2942520  15.3751010
  40.5803942  61.1648728  15.4439428  39.2559082  60.5557181  15.8520438
  47.9455995  59.2157510  29.3782089  47.4295044  58.4315967  29.1912018
  48.8295944  58.8876227  29.5428608  45.6066722  52.9598526  25.3377902
  45.4091543  52.6513614  26.2221234  46.2166428  53.6860165  25.4675831
  53.6138056  63.4862473  28.4729843  54.3441445  63.2247762  29.0337546
  53.0045002  62.7491195  28.5131911  51.6953354  61.6270336  29.0704294
  50.9686517  61.4926301  28.4620785  51.2800640  61.9347165  29.8761012
  39.5183530  65.3460266  36.8351667  40.4386539  65.5238865  37.0291713
  39.4833113  64.4016311  36.6831366  37.8187755  59.2192496  15.3105895
  36.9119210  58.9225609  15.3868609  38.0963736  58.9222314  14.4440181
  28.7365695  60.5398859  25.7604941  28.4168479  59.6864168  25.4679315
  28.1899123  60.7547438  26.5162909  32.5145602  63.2561300  29.4774448
  32.7331612  64.1878408  29.4962482  32.9271376  62.8969275  30.2629252
  39.4349820  53.7629386  21.4650136  38.6250549  53.4176471  21.8405382
  40.1234237  53.4536929  22.0537748  41.3640369  52.8407432  23.0874433
  41.9171407  53.2602886  23.7464456  41.6010455  51.9143181  23.1297389
  37.3873468  58.8294506  38.8677197  37.2870195  59.7788863  38.7989288
  37.1695010  58.5012745  37.9953267  36.5886539  56.0779431  15.4517874
  37.4505703  56.4034330  15.7113692  36.7736883  55.2910927  14.9390940
  28.6053955  64.1601771  27.7298063  27.9117426  63.7455724  27.2168017
  29.3526946  64.2022307  27.1331482  44.7419176  54.9507958  22.5953097
  44.1617845  55.6092762  22.2131150  44.4755108  54.1285302  22.1840515
  43.1922742  54.3513015  24.7974418  43.6922520  54.4629550  23.9888736
  43.8358350  54.0474068  25.4375226  37.2504738  62.2591645  37.6842259
  36.7671820  63.0592005  37.8906148  37.3365677  62.2699590  36.7309703
  30.5190697  64.0920025  25.6064078  30.4961386  64.1907712  24.6545961
  30.8291334  64.9385175  25.9281244  33.1778075  66.1496180  29.7210692
  34.1321329  66.1180122  29.6540624  32.9790599  65.6886803  30.5360918
  33.7677457  64.7197296  32.2881490  34.5870346  65.2141374  32.3116327
  34.0414265  63.8029264  32.2599057  43.5244054  57.1108048  21.6509445
  42.6369909  57.3957699  21.4329640  43.9398043  56.9501811  20.8036722
  46.8758590  57.1354569  25.3663785  47.6518980  57.6251021  25.6388402
  46.1506724  57.5612623  25.8235654  49.3131148  57.8482188  26.4237725
  49.9075639  57.6077924  25.7131034  49.3857732  57.1289319  27.0511262
  31.5328304  71.6915799  26.7380890  31.3982772  70.9316200  26.1718888
  31.1160366  72.4156699  26.2709679  42.6687267  66.8752723  15.7457465
  43.3723117  67.0802725  16.3615121  41.9449916  67.4429485  16.0106549
  43.4985077  62.6262584  21.8659736  43.4420279  63.0831135  21.0267368
  44.0513420  61.8653269  21.6882578  47.3089883  58.4152316  22.6909855
  47.0526818  58.0148951  23.5218063  46.6842751  59.1296110  22.5659994
  51.6202221  61.1548389  25.1981147  51.0601779  61.2241578  25.9712709
  51.0145725  60.9789374  24.4780643  34.6897430  72.5885116  26.9499333
  34.5729814  73.5330549  26.8478023  33.8689876  72.2858678  27.3385132
  44.5773965  67.3135252  17.7955926  45.4119568  66.8816450  17.6133400
  44.4158307  67.1417266  18.7232820  44.2319857  63.8167365  19.1612265
  44.1768661  63.6511637  18.2200709  43.6065912  64.5243398  19.3174455
  29.0212372  59.0535430  32.9873687  29.6671235  58.5434384  33.4760912
  28.8129523  59.7904111  33.5617112  41.5465764  66.1216277  38.4865828
  42.4156924  66.2956929  38.1252463  41.0672515  66.9410694  38.3641557
  37.5415982  53.3175474  18.7397583  37.5294652  54.2617314  18.8965854
  38.4339404  53.1345620  18.4457044  35.7151944  73.2413378  30.1655261
  36.6179191  73.2736988  30.4821756  35.4889314  72.3113829  30.1801597
  37.4705546  71.9944365  26.8265340  36.5201177  71.9946226  26.7129712
  37.7738032  71.2477099  26.3101374  41.3568102  49.9118251  22.9943520
  40.5900497  49.3576738  23.1400202  41.7678807  49.9840120  23.8557672
  53.2058240  77.8304903  27.8911102  53.8436650  77.7111650  27.1874442
  53.0879083  78.7785747  27.9499054  50.0147946  77.7832331  27.8272627
  49.6766457  77.6673396  26.9393162  50.8837714  77.3823496  27.8073633
  45.8734762  79.6367808  23.8169518  45.3099627  79.5457744  23.0485806
  45.7587157  78.8167712  24.2972010  50.4967729  78.9367183  33.7858832
  50.4856370  78.5419981  32.9139336  50.6588368  78.2033255  34.3792604
  43.4199194  81.1318999  26.6553738  44.2120485  80.7909824  26.2400038
  43.6595844  81.2413974  27.5755892  45.3789947  80.3927912  19.5271117
  46.1520823  79.8456899  19.3883993  45.7315346  81.2572162  19.7385579
  47.2174990  81.7204295  32.7338016  46.9264856  82.6249925  32.6184683
  47.8531974  81.7620822  33.4482086  48.1431197  79.0981143  29.3239376
  48.7394769  78.8737166  28.6096339  48.2006168  78.3565889  29.9264824
  52.7599508  75.5556357  24.9664310  53.5462597  75.1375780  24.6154727
  53.0238212  76.4602449  25.1345959  58.1607935  75.4931590  25.8697289
  58.8933107  74.9230807  26.1035118  57.4047291  75.1053191  26.3103794
  47.4352514  78.4548684  19.3613942  47.3188772  77.7793588  20.0295026
  47.5454774  77.9681058  18.5446095  49.7784055  77.9158832  23.0660631
  49.4142262  77.3889453  23.7773553  50.6351171  77.5257301  22.8927117
  55.6833356  69.2053164  30.3291897  55.3516680  70.0748575  30.1053112
  55.0878969  68.8889448  31.0085928  49.4189542  72.9448731  18.0621980
  49.5863944  73.8128968  18.4292451  49.2286711  73.1076013  17.1383269
  52.1764875  81.4065710  29.7287810  51.8765598  82.3090749  29.6203617
  51.8315935  81.1397893  30.5808963  45.6277357  77.8579507  25.7624515
  44.7027853  77.7255721  25.9702206  45.8761770  78.6373726  26.2594457
  55.5762019  73.9248250  27.4085247  54.6678896  73.8563659  27.1144008
  55.5249615  74.4020195  28.2367073  49.3978763  75.4006389  19.0468647
  49.2778388  75.8463440  19.8854127  48.7031351  75.7491706  18.4882185
  42.9886168  77.5012781  26.5968304  43.1178549  77.7547259  27.5107715
  42.3083619  78.0940489  26.2772959  49.6502885  75.3437896  35.3520145
  48.8736219  75.9031816  35.3423009  50.2893448  75.8294679  35.8735015
  57.4423665  72.1264689  29.1863121  56.7998046  72.4197222  28.5402916
  56.9378594  72.0117609  29.9916318  47.9049257  78.1523349  34.9138112
  48.6463941  78.6908393  34.6372935  47.1986242  78.7789638  35.0709664
  53.3804597  80.2952490  33.5110273  53.7887953  79.8534900  32.7664906
  52.6581858  79.7205117  33.7644466  49.7335667  75.2325097  30.8843830
  50.5796862  75.6564510  31.0278479  49.6734304  74.5758721  31.5782393
  53.7033411  80.8553680  27.2662562  53.0742274  81.0199395  26.5638630
  53.3159073  81.2695290  28.0373526  52.8835112  72.8929465  32.5425004
  52.6396044  73.6471525  32.0059280  53.1595043  73.2714812  33.3772251
  54.8373575  79.4368077  31.2202269  55.0490470  80.0799837  30.5436650
  54.7903323  78.6030394  30.7524199  52.4399804  72.0485898  28.1238842
  51.5784283  72.3467151  28.4155579  52.4662238  72.2656297  27.1919874
  49.2561373  80.5928088  24.5312647  49.7199719  80.8715791  23.7417270
  48.9918171  79.6911533  24.3485738  46.1485454  80.1399570  27.4692410
  46.7186811  80.5686838  26.8309895  46.7393566  79.8582155  28.1676596
  48.1930259  76.7151241  21.3402212  48.8954303  77.1672285  21.8076139
  47.8610888  76.0735060  21.9682105  46.6410621  75.3062997  35.7153422
  46.0109281  75.9879278  35.9488819  46.5346709  75.1946079  34.7706560
  41.9355593  74.9734794  26.6419346  41.1454647  75.2292322  26.1659457
  42.4266841  75.7883131  26.7471386  55.9519403  82.3140033  29.3924627
  56.7736846  81.9120220  29.1107308  55.9481806  82.2108267  30.3440743
  43.8870339  75.3379373  23.6002823  43.0901502  75.4498067  24.1186318
  43.6595931  75.6766025  22.7343713  49.7176006  81.8624076  31.5485337
  49.7820439  82.3244483  32.3843509  49.0086930  81.2321441  31.6767647
  40.2193296  75.2265284  29.0734337  40.4701335  76.1112294  29.3391913
  40.7552845  75.0469885  28.3009429  45.9191363  69.6083763  38.0778673
  45.5258309  69.0549962  38.7526317  46.7357504  69.9194342  38.4685190
  42.8853421  81.0467622  21.9892243  43.3977942  81.8410872  22.1397807
  43.5376134  80.3493912  21.9225844  48.8359324  71.0241642  35.6698929
  49.5769038  71.6248796  35.5903392  49.0677247  70.2819280  35.1116972
  43.9800662  76.2098010  33.9477159  43.8654178  75.3083267  34.2484258
  43.1245180  76.4561706  33.5961976  51.0592500  84.1515750  35.5464660
  50.6156354  83.3652129  35.2285564  51.7209714  84.3394900  34.8808550
  49.6146792  81.9462679  34.4169569  50.1475129  81.1850968  34.1868877
  49.0860874  81.6536331  35.1593724  52.7816487  67.0522745  29.9463211
  52.4380757  67.9424387  29.8702322  53.1495450  66.8624403  29.0832796
  40.8502338  79.3756276  22.7651813  41.6877560  79.7853284  22.5485521
  41.0280606  78.4355718  22.7352007  50.3313881  71.8881057  23.5120885
  49.4755478  71.4987908  23.3326523  50.7440833  71.9673018  22.6520670
  51.8613028  69.4227401  27.9112444  51.3577823  69.3857536  27.0980250
  52.1543635  70.3320143  27.9709101  48.1055914  69.5066130  26.9178626
  48.9708910  69.3108939  26.5584515  48.1733423  69.2776482  27.8447983
  52.5353073  74.9158449  20.2795427  52.2303209  75.2304598  21.1305571
  53.4883515  74.9939868  20.3222760  50.9799505  81.0748672  21.9288381
  50.4520867  80.3401431  21.6161619  50.4787008  81.8523348  21.6828350
  55.9592351  79.2697692  27.0455428  55.3016026  79.9596954  27.1335556
  56.7632750  79.6594124  27.3889414  45.7118233  71.7368338  24.2894993
  46.2861985  71.5143520  23.5568186  46.2989215  71.8057033  25.0423594
  54.7697810  77.6242065  25.0959369  55.2829692  78.2572057  25.5981079
  55.4199034  77.0243261  24.7302729  46.0387820  73.7672799  18.3090878
  45.2025132  74.1047486  18.6300153  45.8992590  73.6321779  17.3718015
  48.0140900  68.6109587  23.0170062  47.3605313  68.2958604  22.3926677
  47.9721375  67.9885328  23.7429885  51.2478641  75.0991521  27.3417710
  50.3301202  75.3206468  27.1839398  51.6638784  75.1737831  26.4829417
  52.0313689  76.4982936  22.4720390  52.7785508  77.0104333  22.1627512
  52.3005278  76.1766989  23.3324784  54.4792526  73.5340053  24.4539179
  53.7415283  73.0217439  24.7849422  54.7319299  73.0940434  23.6422456
  54.5804153  66.3116305  25.0480949  54.8863030  65.4513668  24.7606864
  55.3056758  66.9033925  24.8479943  40.8728509  76.7146991  23.4362547
  40.6752909  76.1216352  22.7113613  40.3175173  76.4099201  24.1538485
  48.8525233  76.6070098  25.5557140  48.9073843  75.6543934  25.4799616
  48.0416435  76.7629537  26.0398438  46.7917593  75.2247157  23.3147519
  45.9785458  75.5241328  23.7212711  47.2876587  74.8302846  24.0322001
  52.3891804  75.6888982  32.1462413  52.7441192  75.9160455  33.0056878
  53.0363936  76.0207359  31.5239668  46.2831667  72.7965513  28.9308754
  46.9231047  72.6554272  28.2331717  45.4509198  72.5100026  28.5547356
  58.1458921  80.8783945  27.8623013  58.5795428  80.7859234  28.7106067
  58.8590502  80.8541445  27.2243029  47.0591971  82.0967943  25.0443746
  47.8532570  81.6018263  24.8426321  46.3483664  81.5685806  24.6811452
  51.8786816  84.4786039  29.3956114  51.9323838  85.0476975  30.1633830
  51.0101597  84.6487924  29.0310151  43.3674735  76.2411025  21.1203499
  42.4372323  76.1795481  21.3373461  43.4632207  75.7186978  20.3240140
  43.2860284  72.7665838  23.7081740  43.5467101  73.6811171  23.5990901
  44.1077456  72.2990280  23.8578353  44.7585209  74.1803595  30.8780565
  45.4308263  73.9720957  30.2293214  43.9314996  73.9825681  30.4385797
  50.6610781  70.8065536  32.8946226  50.0138696  71.5055486  32.8010702
  51.4311797  71.2401680  33.2622474  54.0689579  81.0714388  35.9696779
  53.9175086  80.8424940  35.0526863  54.0594259  82.0284990  35.9828124
  50.8374916  78.6446301  30.9543046  51.7666976  78.7957460  30.7812013
  50.4165946  78.7330322  30.0991692  49.6363247  82.6696965  28.7241583
  49.4974333  82.3015750  29.5967521  48.8477844  83.1844605  28.5525541
  51.1868463  82.0478568  26.1130421  50.8518295  82.0079338  27.0088071
  50.6872408  81.3823284  25.6400831  45.1612706  77.4546198  31.6383002
  45.0232504  76.7226437  32.2394541  46.0717630  77.3655098  31.3567190
  47.7895007  77.1666157  31.1266682  48.4994626  76.5259350  31.0853300
  47.7464315  77.4179052  32.0492863  46.5023941  74.1531375  32.9462321
  45.9661298  73.7022114  33.5983918  45.9140650  74.2877284  32.2032786
  45.9126200  73.6120027  15.5088785  45.0355666  73.4908827  15.1451032
  46.3883953  72.8206105  15.2567674  55.7799193  82.0673095  32.2787241
  54.8925972  81.7299016  32.4013640  56.3497744  81.3356126  32.5156006
  37.4328340  78.3997186  25.6030292  38.1199380  78.0858916  25.0151307
  37.2776469  79.3038551  25.3297543  42.2363062  73.2887383  30.0315316
  42.1521251  72.6813052  29.2965726  41.4145769  73.7796401  30.0324812
  52.4086776  71.7740946  25.3985511  52.9055476  71.0210909  25.0786581
  51.6373758  71.8105263  24.8328720  60.2616534  77.4781312  27.0403802
  60.2506410  78.3606027  26.6697735  59.3933913  77.1252863  26.8458339
  53.4916557  80.5312634  22.9723934  52.5572836  80.6514096  22.8028638
  53.6693225  79.6285100  22.7083944  48.9921745  73.9158329  25.1257195
  48.6219533  73.3629370  25.8138101  49.4880837  73.3116463  24.5732195
  56.8789108  76.3729953  23.5073968  57.3449560  77.2057945  23.4334271
  57.3296609  75.9074935  24.2119227  54.8505771  68.7410540  27.5464870
  53.9368851  68.9714767  27.7147077  55.2798872  68.8248984  28.3978902
  54.6212230  76.9300432  30.0464764  53.9683680  77.1776339  29.3917216
  54.9992609  76.1164570  29.7127241  50.6699803  77.6720243  36.5330801
  49.9940440  77.5714372  37.2033176  51.4927436  77.5159457  36.9966798
  37.0096316  76.4797780  27.8747759  37.0480416  75.9461370  28.6684877
  36.5036609  75.9532985  27.2558736  44.3887079  71.3262320  31.3710301
  44.4528405  72.1877151  30.9587699  44.3254199  70.7136322  30.6382660
  43.8639351  73.3985453  35.0183336  44.4911390  73.0162530  35.6320860
  43.0067270  73.1799655  35.3839028  40.6404894  75.2061882  20.9501691
  40.9358335  74.2972560  20.8968744  39.7392930  75.1849621  20.6282693
  44.1699141  73.2817878  26.9329239  43.4485727  73.8953846  26.7936712
  44.9592397  73.8175643  26.8545885  46.9725454  70.6172305  33.2069891
  47.4959856  70.8634601  33.9696200  46.7537788  71.4492340  32.7873028
  42.3692736  72.8875980  21.0741016  42.0405442  72.0073358  20.8916122
  42.7232106  72.8323648  21.9617405  51.6172314  84.5230882  25.5836001
  51.4697277  83.5947590  25.7643571  52.4425808  84.5450973  25.0993076
  45.4834559  73.1748949  21.4416493  45.8230631  73.7034871  20.7195102
  45.9306679  73.5129355  22.2175060  48.1778000  71.5586000  30.8919561
  47.8374820  70.7593813  31.2940241  47.4717006  71.8587711  30.3196395
  48.8294471  68.6435312  29.3446884  49.6520541  68.1695791  29.2225775
  49.0732535  69.4225796  29.8445571  47.4702706  71.6723571  19.6409786
  48.1911068  72.0504824  19.1373503  46.8468010  72.3912448  19.7444764
  51.6133829  72.3768720  20.5768118  51.8297443  73.2593358  20.2756947
  51.1327896  71.9854933  19.8473760  46.3533050  75.3354433  27.1538863
  46.2077631  75.6494736  28.0463145  45.8758254  75.9539333  26.6009762
  48.2129433  72.3256981  27.2019753  48.1991002  71.4298074  26.8652051
  48.9301861  72.3327645  27.8358039  50.0655564  72.7594321  29.2472880
  49.8073342  73.6811392  29.2457210  49.5340604  72.3624756  29.9373344
  40.8278712  77.8759777  30.0926524  40.2832180  78.6519585  30.2246799
  41.7058062  78.2230582  29.9345646  47.6166329  71.2071361  22.4707323
  47.7382240  70.2788008  22.6698210  47.3268371  71.2210047  21.5585638
  50.4857519  68.8926272  25.6074043  50.5079216  68.9565605  24.6526022
  50.9025578  68.0530780  25.8014549  60.8641144  78.6281531  23.6453265
  61.3072290  77.8788857  23.2472388  59.9867654  78.6191668  23.2626997
  41.6144734  77.0029674  32.9856681  40.8726470  77.1512309  33.5721312
  41.2937478  77.2637939  32.1223431  47.1007408  72.7203359  36.6797255
  47.1495564  73.5965482  36.2975025  47.6429923  72.1780752  36.1068899
  57.7060129  80.1136948  33.2731121  57.7558134  79.9486956  34.2146644
  57.5974053  79.2464207  32.8829002  54.9963892  76.0967876  34.5890428
  55.8973754  75.9574341  34.2974425  55.0711866  76.2622331  35.5288605
  49.3306697  73.4734731  33.4343614  48.4610006  73.7668297  33.1626203
  49.5666177  74.0575176  34.1550878  57.4565514  77.6566505  31.9853200
  57.9319636  77.8494151  31.1772052  56.5331080  77.7125690  31.7396584
  44.3449021  78.8190672  21.5684279  44.0995063  77.9153002  21.7664489
  44.5144935  78.8207822  20.6263757  52.0345731  69.6914348  30.9509034
  52.5527675  70.4275375  30.6255523  51.6800863  69.9978341  31.7855794
  43.6144668  74.5519029  19.0670440  42.9213913  74.6263384  18.4110476
  43.3696420  73.7879373  19.5891957  52.2858325  66.1114631  26.4709931
  52.5660079  65.4437820  27.0970358  53.0708932  66.3043726  25.9584595
  56.1567183  74.5332265  30.2181506  57.1084606  74.6330362  30.2393730
  55.9870634  73.7410533  30.7279590  54.1781563  71.6187848  30.4040907
  53.5831495  71.8992861  29.7087396  53.8931259  72.1081749  31.1757648
  58.6355261  77.7538384  29.3323806  58.6031581  76.8154385  29.5183490
  59.2455885  77.8322421  28.5989631  58.7849750  74.5449428  29.3782089
  58.2688798  73.7607884  29.1912018  59.6689698  74.2168144  29.5428608
  56.4460476  68.2890443  25.3377902  56.2485298  67.9805531  26.2221234
  57.0560182  69.0152082  25.4675831  62.5347108  76.9562254  29.0704294
  61.8080272  76.8218219  28.4620785  62.1194395  77.2639082  29.8761012
  50.3577284  80.6752183  36.8351667  51.2780294  80.8530782  37.0291713
  50.3226867  79.7308229  36.6831366  39.5759449  75.8690777  25.7604941
  39.2562234  75.0156085  25.4679315  39.0292878  76.0839355  26.5162909
  43.3539357  78.5853218  29.4774448  43.5725367  79.5170326  29.4962482
  43.7665131  78.2261192  30.2629252  50.2743575  69.0921303  21.4650136
  49.4644303  68.7468388  21.8405382  50.9627992  68.7828847  22.0537748
  52.2034123  68.1699350  23.0874433  52.7565162  68.5894804  23.7464456
  52.4404209  67.2435098  23.1297389  48.2267222  74.1586424  38.8677197
  48.1263949  75.1080781  38.7989288  48.0088764  73.8304663  37.9953267
  47.4280294  71.4071349  15.4517874  48.2899458  71.7326247  15.7113692
  47.6130638  70.6202845  14.9390940  39.4447709  79.4893689  27.7298063
  38.7511181  79.0747641  27.2168017  40.1920700  79.5314225  27.1331482
  55.5812930  70.2799875  22.5953097  55.0011599  70.9384679  22.2131150
  55.3148863  69.4577220  22.1840515  54.0316497  69.6804933  24.7974418
  54.5316275  69.7921468  23.9888736  54.6752104  69.3765986  25.4375226
  48.0898492  77.5883563  37.6842259  47.6065574  78.3883923  37.8906148
  48.1759431  77.5991508  36.7309703  41.3584452  79.4211942  25.6064078
  41.3355140  79.5199630  24.6545961  41.6685088  80.2677093  25.9281244
  44.0171830  81.4788097  29.7210692  44.9715083  81.4472040  29.6540624
  43.8184353  81.0178721  30.5360918  44.6071212  80.0489213  32.2881490
  45.4264101  80.5433292  32.3116327  44.8808020  79.1321182  32.2599057
  54.3637808  72.4399966  21.6509445  53.4763663  72.7249616  21.4329640
  54.7791797  72.2793729  20.8036722  57.7152344  72.4646487  25.3663785
  58.4912734  72.9542939  25.6388402  56.9900478  72.8904541  25.8235654
  60.1524903  73.1774106  26.4237725  60.7469394  72.9369842  25.7131034
  60.2251487  72.4581236  27.0511262  54.3378832  77.9554502  21.8659736
  54.2814033  78.4123053  21.0267368  54.8907174  77.1945186  21.6882578
  58.1483638  73.7444234  22.6909855  57.8920572  73.3440869  23.5218063
  57.5236506  74.4588027  22.5659994  62.4595976  76.4840307  25.1981147
  61.8995534  76.5533496  25.9712709  61.8539479  76.3081291  24.4780643
  39.8606126  74.3827347  32.9873687  40.5064990  73.8726301  33.4760912
  39.6523277  75.1196029  33.5617112  52.3859518  81.4508195  38.4865828
  53.2550678  81.6248847  38.1252463  51.9066270  82.2702612  38.3641557
  48.3809737  68.6467392  18.7397583  48.3688407  69.5909232  18.8965854
  49.2733159  68.4637537  18.4457044  52.1961856  65.2410169  22.9943520
  51.4294252  64.6868655  23.1400202  52.6072561  65.3132037  23.8557672
  44.2003617  71.5294964  37.0848701  45.0635079  71.1731769  37.2952026
  43.6269028  71.1908859  37.7724106  17.9786467   9.9553552  20.5104139
  17.9675107   9.5606351  19.6384643  18.1407106   9.2219625  21.1037911
  14.6993728  12.7390664  19.4583323  14.4083594  13.6436295  19.3429989
  15.3350712  12.7807192  20.1727393  19.6583613  12.4252080  16.4533117
  19.3584336  13.3277119  16.3448924  19.3134672  12.1584263  17.3054270
  17.1321622   6.3624266  22.0765451  16.3554957   6.9218186  22.0668316
  17.7712186   6.8481048  22.5980322  15.3867995   9.1709719  21.6383418
  16.1282679   9.7094763  21.3618242  14.6804980   9.7976008  21.7954970
  20.8623334  11.3138859  20.2355580  21.2706690  10.8721270  19.4910212
  20.1400596  10.7391487  20.4889773  22.3192313  10.4554447  17.9447576
  22.5309208  11.0986207  17.2681957  22.2722061   9.6216763  17.4769506
  23.4338141  13.3326402  16.1169933  24.2555584  12.9306590  15.8352615
  23.4300543  13.2294636  17.0686049  17.1994744  12.8810446  18.2730644
  17.2639176  13.3430853  19.1088816  16.4905668  12.2507810  18.4012954
  18.5411238  15.1702120  22.2709966  18.0975092  14.3838498  21.9530871
  19.2028452  15.3581270  21.6053857  13.2998359  16.6997921  16.7970645
  13.8505784  16.5714984  16.0247639  12.4609835  16.9992810  16.4465538
  20.6392476  15.4504919  20.2991368  20.6210951  16.2713801  19.8071637
  21.5612396  15.3258995  20.5241509  17.0965530  12.9649049  21.1414876
  17.6293867  12.2037337  20.9114184  16.5679611  12.6722701  21.8839030
  25.6277659  11.8970314  14.5868320  26.0614165  11.8045603  15.4351374
  26.3409239  11.8727815  13.9488336  19.3605554  15.4972408  16.1201420
  19.4142576  16.0663345  16.8879136  18.4920335  15.6674293  15.7555457
  26.4893208  11.9394015  17.1201205  26.6829098  12.8439825  17.3660480
  26.3893826  11.4801434  17.9539790  21.5508317  12.0900758  22.6942086
  21.3993823  11.8611309  21.7772169  21.5412996  13.0471359  22.7073431
  23.2600524  15.1219880  20.7718568  23.2013070  14.4379100  20.1049151
  23.6620042  15.8638870  20.3199194  12.2791222  21.9381794  13.5652286
  12.5187821  22.5700318  14.2431305  11.4360419  21.5869834  13.8517646
  23.2617931  13.0859464  19.0032547  22.3744710  12.7485386  19.1258946
  23.8316482  12.3542495  19.2401313  16.7919084  17.7460917  15.9693790
  16.7189256  18.5515888  16.4813095  16.3496477  17.9452882  15.1441812
  19.2517768  17.6447751  18.1251949  19.9645740  18.2795215  18.0527851
  18.7607796  17.7411617  17.3091951  14.3029681  15.3942194  18.9457520
  15.0039141  16.0278677  19.0986914  13.8324796  15.7356926  18.1853159
  18.1518540   8.6906613  23.2576107  17.4759177   8.5900742  23.9278483
  18.9746174   8.5345826  23.7212105  16.8941323  19.9973540  17.4933723
  17.4459631  20.1605161  18.2582809  17.2347517  20.5877978  16.8213748
  21.7452198  14.8234797  23.3482378  22.2892102  15.4364756  22.8537333
  21.1639042  15.3814376  23.8649391  20.0309710  17.9455515  14.4797406
  19.9060850  17.1445255  13.9708351  20.6888802  18.4401709  13.9911376
  22.0944619  15.7464536  16.1076956  21.1474954  15.6269887  16.0355282
  22.4427392  14.8587034  16.1903217  22.7025174  16.3645811  13.3946181
  23.6271721  16.1588672  13.2570632  22.5340477  16.1162212  14.3035522
  17.0407135  17.5632022  19.5082378  17.3494261  17.3181168  20.3805077
  17.8382617  17.7678660  19.0201248  25.0680992  14.2830852  22.6843699
  24.2776536  14.2654990  22.1448198  24.8314346  14.8219145  23.4392736
  25.1878867  11.1323318  19.9976428  25.2376872  10.9673325  20.9391950
  25.0792790  10.2650577  19.6074308  22.4782629   7.1154246  21.3135734
  23.3792492   6.9760711  21.0219732  22.5530604   7.2808701  22.2533912
  26.6897064  13.5520259  20.2418449  26.3981872  13.9150240  21.0781910
  26.0769195  12.8387268  20.0631781  24.9384252   8.6752874  18.7098507
  25.4138374   8.8680520  17.9017359  24.0149817   8.7312060  18.4641891
  26.1173999   8.7724754  16.0569112  26.0850319   7.8340755  16.2428796
  26.7274622   8.8508791  15.3234937  31.9350549   9.8340761  15.1975149
  32.6653937   9.5726049  15.7582853  31.3257494   9.0969483  15.2377217
  30.0165846   7.9748623  15.7949600  29.2899009   7.8404588  15.1866092
  29.6013133   8.2825452  16.6006318  17.8396022  11.6938553  23.5596973
  18.7599032  11.8717152  23.7537020  17.8045605  10.7494598  23.4076673
  15.7085960   5.1772793  25.5922504  15.6082687   6.1267150  25.5234595
  15.4907502   4.8491032  24.7198574  15.5717230   8.6069932  24.4087565
  15.0884312   9.4070292  24.6151454  15.6578169   8.6177877  23.4555009
  19.8678256  12.4694564  25.2111134  20.7369416  12.6435217  24.8497769
  19.3885008  13.2888981  25.0886864  14.0364436  19.5891665  16.8900568
  14.9391683  19.6215276  17.2067063  13.8101806  18.6592116  16.9046904
  31.5270732  24.1783190  14.6156409  32.1649142  24.0589938  13.9119749
  31.4091575  25.1264034  14.6744361  28.3360438  24.1310618  14.5517934
  27.9978950  24.0151683  13.6638468  29.2050206  23.7301783  14.5318940
  24.1947254  25.9846095  10.5414825  23.6312119  25.8936032   9.7731112
  24.0799649  25.1645999  11.0217317  28.8180221  25.2845470  20.5104139
  28.8068862  24.8898268  19.6384643  28.9800861  24.5511543  21.1037911
  21.7411686  27.4797286  13.3799045  22.5332978  27.1388111  12.9645344
  21.9808336  27.5892261  14.3001198  29.7746813  29.6517062   5.8529289
  29.1234792  30.2371143   5.4663303  30.5691175  30.1823257   5.9124327
  23.7002440  26.7406200   6.2516424  24.4733316  26.1935187   6.1129300
  24.0527839  27.6050449   6.4630885  25.5387482  28.0682582  19.4583323
  25.2477348  28.9728213  19.3429989  26.1744467  28.1099110  20.1727393
  26.4643689  25.4459430  16.0484683  27.0607261  25.2215453  15.3341646
  26.5218661  24.7044176  16.6510131  31.0812000  21.9034644  11.6909617
  31.8675090  21.4854067  11.3400034  31.3450705  22.8080736  11.8591265
  31.2522078  27.3407494   6.3898274  30.6167911  27.4142121   7.1019178
  30.9219484  27.9301093   5.7117353  36.4820428  21.8409877  12.5942595
  37.2145599  21.2709094  12.8280425  35.7259783  21.4531478  13.0349101
  28.0996547  24.2637119   9.7905938  27.7354754  23.7367740  10.5018859
  28.9563663  23.8735588   9.6172423  34.0045848  15.5531451  17.0537204
  33.6729173  16.4226862  16.8298419  33.4091461  15.2367735  17.7331234
  30.4977367  27.7543997  16.4533117  30.1978090  28.6569036  16.3448924
  30.1528427  27.4876181  17.3054270  23.9489849  24.2057794  12.4869821
  23.0240345  24.0734008  12.6947513  24.1974262  24.9852013  12.9839764
  33.8974511  20.2726538  14.1330554  32.9891389  20.2041946  13.8389315
  33.8462107  20.7498483  14.9612380  21.3098660  23.8491068  13.3213610
  21.4391041  24.1025547  14.2353022  20.6296111  24.4418776  13.0018265
  25.4798147  34.5188318   9.4204084  25.4022177  35.4696143   9.4992565
  24.8759791  34.1734190  10.0779011  27.9715377  21.6916183  22.0765451
  27.1948711  22.2510103  22.0668316  28.6105940  22.1772966  22.5980322
  35.7636158  18.4742976  15.9108428  35.1210538  18.7675509  15.2648223
  35.2591086  18.3595896  16.7161625  33.4176321  22.2206149   6.5994287
  34.3294177  22.4533536   6.4241985  32.9085968  22.8043193   6.0369366
  26.2261749  24.5001637  21.6383418  26.9676434  25.0386681  21.3618242
  25.5198735  25.1267925  21.7954970  31.7017089  26.6430777  20.2355580
  32.1100445  26.2013188  19.4910212  30.9794350  26.0683405  20.4889773
  28.0548159  21.5803384  17.6089137  28.9009354  22.0042797  17.7523786
  27.9946797  20.9237008  18.3027700  32.0245904  27.2031968  13.9907869
  31.3954766  27.3677682  13.2883937  31.6371566  27.6173577  14.7618833
  35.9035135  28.1386405  11.3452233  35.2186174  28.5185307  10.7949266
  35.9878985  28.7481732  12.0784180  31.2047604  19.2407752  19.2670310
  30.9608536  19.9949813  18.7304586  31.4807535  19.6193100  20.1017558
  33.1586067  25.7846365  17.9447576  33.3702962  26.4278124  17.2681957
  33.1115815  24.9508681  17.4769506  30.7612296  18.3964185  14.8484148
  29.8996775  18.6945439  15.1400886  30.7874731  18.6134584  13.9165181
  27.5773865  26.9406376  11.2557954  28.0412211  27.2194079  10.4662576
  27.3130664  26.0389820  11.0731045  24.4697947  26.4877857  14.1937717
  25.0399304  26.9165126  13.5555202  25.0606058  26.2060442  14.8921903
  26.5142752  23.0629528   8.0647519  27.2166795  23.5150572   8.5321445
  26.1823380  22.4213347   8.6927412  24.9623113  21.6541285  22.4398728
  24.3321774  22.3357566  22.6734125  24.8559201  21.5424366  21.4951867
  20.2568085  21.3213081  13.3664653  19.4667139  21.5770609  12.8904763
  20.7479333  22.1361419  13.4716693  34.2731895  28.6618320  16.1169933
  35.0949339  28.2598507  15.8352615  34.2694298  28.5586554  17.0686049
  22.2082831  21.6857660  10.3248129  21.4113994  21.7976354  10.8431625
  21.9808423  22.0244312   9.4589020  28.0388498  28.2102363  18.2730644
  28.1032931  28.6722770  19.1088816  27.3299422  27.5799728  18.4012954
  18.5405788  21.5743571  15.7979643  18.7913827  22.4590581  16.0637219
  19.0765337  21.3948173  15.0254735  42.3637888  25.0057068  12.4654905
  41.6101596  24.4364466  12.3098909  42.4985429  24.9719733  13.4125540
  27.7536516  29.8770471   8.1409624  27.6182191  30.7222006   8.5694472
  28.2946329  30.0789748   7.3775558  24.2403856  15.9562051  24.8023979
  23.8470801  15.4028249  25.4771624  25.0569996  16.2672629  25.1930497
  21.2065914  27.3945909   8.7137549  21.7190434  28.1889159   8.8643114
  21.8588626  26.6972199   8.6471151  23.0160798  30.5111665  10.7960302
  23.1927427  31.4329630  10.6081286  23.8117632  30.1970084  11.2254682
  27.1571817  17.3719930  22.3944236  27.8981530  17.9727083  22.3148698
  27.3889740  16.6297567  21.8362279  22.3013155  22.5576297  20.6722466
  22.1866670  21.6561554  20.9729565  21.4457673  22.8039994  20.3207282
  29.3804993  30.4994037  22.2709966  28.9368847  29.7130416  21.9530871
  30.0422206  30.6873188  21.6053857  24.1392114  32.0289839  16.7970645
  24.6899539  31.9006902  16.0247639  23.3003590  32.3284728  16.4465538
  31.4786231  30.7796837  20.2991368  31.4604706  31.6005718  19.8071637
  32.4006151  30.6550912  20.5241509  27.9359285  28.2940967  21.1414876
  28.4687622  27.5329255  20.9114184  27.4073366  28.0014618  21.8839030
  31.1028980  13.4001033  16.6708518  30.7593249  14.2902674  16.5947628
  31.4707942  13.2102690  15.8078103  19.1714830  25.7234563   9.4897120
  20.0090052  26.1331571   9.2730828  19.3493098  24.7834005   9.4597314
  31.0679262  23.3909644   5.1780953  30.5525886  24.1614248   5.4169340
  30.7956571  22.7174780   5.8014014  28.6526373  18.2359344  10.2366191
  27.7967970  17.8466195  10.0571830  29.0653325  18.3151305   9.3765977
  30.1825520  15.7705688  14.6357751  29.6790316  15.7335823  13.8225556
  30.4756127  16.6798430  14.6954408  26.4268406  15.8544417  13.6423933
  27.2921403  15.6587226  13.2829822  26.4945915  15.6254769  14.5693289
  36.0413537  26.1441998   7.1134126  35.2642979  25.8053158   6.6689288
  36.7205018  26.1494622   6.4389091  30.8565566  21.2636736   7.0040734
  30.5515701  21.5782885   7.8550877  31.8096008  21.3418156   7.0468067
  29.3011997  27.4226959   8.6533688  28.7733359  26.6879719   8.3406925
  28.7999500  28.2001635   8.4073656  34.2804843  25.6175980  13.7700734
  33.6228518  26.3075241  13.8580863  35.0845243  26.0072412  14.1134721
  33.0910302  23.9720352  11.8204676  33.6042184  24.6050344  12.3226386
  33.7411526  23.3721548  11.4548036  30.3532676  33.9504677   4.5765347
  29.6794375  34.2536373   5.1850305  30.7398498  34.7533757   4.2270804
  29.5691133  21.4469808  14.0663017  28.6513694  21.6684755  13.9084705
  29.9851277  21.5216118  13.2074724  30.3526181  22.8461224   9.1965697
  31.0998000  23.3582621   8.8872819  30.6217770  22.5245276  10.0570090
  28.6252831  25.3419764   6.1792651  27.7164050  25.0578797   6.2765121
  28.6547915  25.7618843   5.3195958  33.8572098  28.9526354   9.9483819
  33.4034426  28.1117264  10.0049009  33.2266065  29.5887752  10.2858599
  32.8005018  19.8818340  11.1784486  32.0627775  19.3695726  11.5094729
  33.0531792  19.4418721  10.3667763  32.3005038  30.7902850  10.8833637
  32.5928012  31.3507908  10.1646002  32.8103658  31.0831411  11.6386796
  32.9016645  12.6594592  11.7726255  33.2075522  11.7991955  11.4852170
  33.6269250  13.2512212  11.5725249  27.1737725  22.9548385  12.2802446
  27.2286335  22.0022221  12.2044923  26.3628927  23.1107824  12.7643745
  25.1130085  21.5725445  10.0392825  24.2997951  21.8719615  10.4458017
  25.6089079  21.1781133  10.7567308  27.2638663  31.5683202  11.9727090
  27.2214842  31.7944048  11.0435622  28.1801362  31.3346576  12.1212891
  30.7104297  22.0367269  18.8707719  31.0653684  22.2638742  19.7302185
  31.3576428  22.3685646  18.2484974  36.4402034  25.1585705   9.5757048
  36.3019932  25.3487301   8.6478237  36.0838252  25.9205088  10.0325099
  24.6044160  19.1443800  15.6554060  25.2443539  19.0032559  14.9577024
  23.7721690  18.8578313  15.2792662  36.4671413  27.2262232  14.5868320
  36.9007920  27.1337521  15.4351374  37.1802994  27.2019732  13.9488336
  25.3804464  28.4446231  11.7689053  26.1745062  27.9496551  11.5671628
  24.6696156  27.9164094  11.4056758  30.1999308  30.8264326  16.1201420
  30.2536330  31.3955262  16.8879136  29.3314090  30.9966211  15.7555457
  23.0797702  20.5281882  17.6025872  23.7520755  20.3199244  16.9538520
  22.2527488  20.3303968  17.1631104  37.3286963  27.2685933  17.1201205
  37.5222853  28.1731743  17.3660480  37.2287581  26.8093352  17.9539790
  28.9823274  17.1543823  19.6191532  28.3351189  17.8533773  19.5256009
  29.7524289  17.5879967  19.9867781  32.3902071  27.4192675  22.6942086
  32.2387578  27.1903227  21.7772169  32.3806751  28.3763277  22.7073431
  29.1587408  24.9924588  17.6788352  30.0879468  25.1435748  17.5057319
  28.7378438  25.0808609  16.8236999  27.9575740  29.0175253  15.4486890
  27.8186825  28.6494037  16.3212828  27.1690336  29.5322892  15.2770848
  28.5523892  34.1184349   6.7912426  28.7275647  33.6472392   7.6058049
  27.8656680  34.7450115   7.0193687  29.5080955  28.3956855  12.8375728
  29.1730787  28.3557625  13.7333377  29.0084900  27.7301571  12.3646138
  23.4825199  23.8024485  18.3628309  23.3444997  23.0704724  18.9639848
  24.3930122  23.7133385  18.0812496  26.1107499  23.5144445  17.8511988
  26.8207118  22.8737637  17.8098607  26.0676808  23.7657339  18.7738169
  34.0994278  30.4511798  20.7718568  34.0406824  29.7671018  20.1049151
  34.5013797  31.1930788  20.3199194  24.8236433  20.5009662  19.6707628
  24.2873790  20.0500401  20.3229224  24.2353142  20.6355571  18.9278092
  23.1184977  37.2673712  13.5652286  23.3581575  37.8992236  14.2431305
  22.2754173  36.9161752  13.8517646  34.1011685  28.4151382  19.0032547
  33.2138464  28.0777304  19.1258946  34.6710236  27.6834413  19.2401313
  15.7540833  24.7475474  12.3275599  16.4411872  24.4337204  11.7396614
  15.5988961  25.6516838  12.0542850  20.5575555  19.6365670  16.7560622
  20.4733743  19.0291340  16.0211032  19.7358261  20.1274688  16.7570119
  27.6312839  33.0752834  15.9693790  27.5583010  33.8807806  16.4813095
  27.1890232  33.2744800  15.1441812  27.4202618  32.3124604   9.4796612
  26.6370140  32.8546284   9.5734837  28.1195364  32.8298584   9.8790853
  30.7299269  18.1219234  12.1230817  31.2267968  17.3689196  11.8031888
  29.9586250  18.1583550  11.5574027  38.5829026  23.8259599  13.7649109
  38.5718902  24.7084315  13.3943042  37.7146405  23.4731150  13.5703646
  30.0911522  32.9739668  18.1251949  30.8039495  33.6087133  18.0527851
  29.6001551  33.0703534  17.3091951  31.8129049  26.8790921   9.6969241
  30.8785328  26.9992383   9.5273945  31.9905718  25.9763388   9.4329251
  27.3134237  20.2636617  11.8502502  26.9432025  19.7107657  12.5383408
  27.8093330  19.6594750  11.2977502  35.2001601  22.7208240  10.2319275
  35.6662053  23.5536232  10.1579578  35.6509101  22.2553222  10.9364533
  25.1423436  30.7234112  18.9457520  25.8432895  31.3570595  19.0986914
  24.6718551  31.0648843  18.1853159  33.2677832  29.0652061   7.2305427
  33.5437676  28.9508656   8.1399301  32.3982330  28.6669546   7.1917600
  33.1718263  15.0888827  14.2710176  32.2581343  15.3193054  14.4392383
  33.6011365  15.1727271  15.1224209  32.9424722  23.2778719  16.7710070
  32.2896172  23.5254627  16.1162523  33.3205102  22.4642857  16.4372548
  29.9031896  33.3138412  10.8738241  30.0854290  32.4960068  11.3365993
  30.7264882  33.5306105  10.4363131  30.2374061  32.2406597   8.1353289
  30.7661828  31.7299052   7.5223451  30.5002281  31.9249128   8.9998822
  28.9912295  24.0198530  23.2576107  28.3152932  23.9192660  23.9278483
  29.8139929  23.8637744  23.7212105  20.7391154  30.2570467  15.8788623
  21.3244591  29.5114155  16.0116527  20.5415992  30.5674423  16.7625287
  23.5929809  33.2921714  10.8951065  22.9240184  33.7767842  10.4115105
  23.4542679  33.5390935  11.8094444  15.3308809  22.8276067  14.5993066
  15.3692908  22.2939658  15.3930184  14.8249101  22.3011272  13.9804043
  27.7335078  35.3265458  17.4933723  28.2853386  35.4897079  18.2582809
  28.0741271  35.9169895  16.8213748  22.7099571  17.6740607  18.0955608
  22.7740897  18.5355438  17.6833006  22.6466691  17.0614609  17.3627967
  22.1851843  19.7463740  21.7428642  22.8123882  19.3640817  22.3566167
  21.3279762  19.5277942  22.1084335  32.5845952  30.1526715  23.3482378
  33.1285856  30.7656673  22.8537333  32.0032797  30.7106294  23.8649391
  30.8703465  33.2747433  14.4797406  30.7454604  32.4737173  13.9708351
  31.5282556  33.7693627  13.9911376  22.4911633  19.6296166  13.6574546
  21.7698219  20.2432133  13.5182019  23.2804889  20.1653930  13.5791192
  32.9338373  31.0756453  16.1076956  31.9868709  30.9561804  16.0355282
  33.2821146  30.1878951  16.1903217  25.2937947  16.9650592  19.9315198
  25.8172349  17.2112889  20.6941507  25.0750280  17.7970627  19.5118335
  29.9384807  30.8709169  12.3081308  29.7909769  29.9425877  12.4888878
  30.7638300  30.8929260  11.8238383  33.5418929  31.6937728  13.3946181
  34.4665476  31.4880590  13.2570632  33.3734232  31.4454129  14.3035522
  26.4990492  17.9064287  17.6164868  26.1587312  17.1072100  18.0185548
  25.7929498  18.2065998  17.0441701  27.1506964  14.9913600  16.0692191
  27.9733033  14.5174078  15.9471081  27.3945027  15.7704083  16.5690877
  24.6745542  21.6832720  13.8784170  24.5290123  21.9973023  14.7708451
  24.1970746  22.3017621  13.3255068  26.5341925  18.6735268  13.9265059
  26.5203494  17.7776362  13.5897357  27.2514353  18.6805932  14.5603345
  28.3868056  19.1072609  15.9718187  28.1285834  20.0289679  15.9702517
  27.8553096  18.7103043  16.6618651  33.3314245  32.2123396   8.7508272
  33.5051122  31.6469818   7.9982125  33.8243136  33.0124291   8.5687762
  19.1491205  24.2238065  16.8171831  18.6044673  24.9997873  16.9492105
  20.0270554  24.5708869  16.6590952  28.8070012  15.2404559  12.3319349
  28.8291708  15.3043892  11.3771329  29.2238071  14.4009068  12.5259855
  39.1853636  24.9759819  10.3698572  39.6284782  24.2267144   9.9717695
  38.3080146  24.9669955   9.9872304  34.3189417  31.5290160   5.8505170
  35.0140322  32.1496853   6.0692485  34.6612567  30.6785511   6.1257548
  19.9357226  23.3507961  19.7101988  19.1938962  23.4990596  20.2966618
  19.6149971  23.6116227  18.8468737  36.2180840  28.9789866   7.3792501
  36.7432164  29.3177138   6.6541821  36.1303193  28.0436881   7.1955636
  27.8800889  32.8923939  19.5082378  28.1888015  32.6473086  20.3805077
  28.6776371  33.0970578  19.0201248  27.9021501  35.0461849  11.7387754
  27.4626491  34.5538228  12.4320611  28.6529618  34.5034817  11.4979830
  20.3813840  31.2373390  11.7412382  21.2071860  30.9377162  11.3611026
  20.0307892  30.4681012  12.1902171  25.3495373  30.5899858  13.8110056
  24.7275383  29.9270563  13.5112284  26.0200240  30.6160990  13.1283704
  18.5822445  29.1559716  12.7001316  17.7454353  28.7281891  12.5185317
  18.5546091  29.3492160  13.6372107  25.4219901  19.0681646  23.4042562
  25.4708056  19.9443769  23.0220332  25.9642415  18.5259039  22.8314205
  35.9074746  29.6122769  22.6843699  35.1170290  29.5946908  22.1448198
  35.6708101  30.1511063  23.4392736  36.0272621  26.4615236  19.9976428
  36.0770626  26.2965243  20.9391950  35.9186545  25.5942495  19.6074308
  24.9108880  29.1403781   7.2868517  25.0597001  29.8239246   6.6335189
  25.7175324  29.1208871   7.8017972  33.3176384  22.4446164  21.3135734
  34.2186247  22.3052628  21.0219732  33.3924358  22.6100618  22.2533912
  27.6519189  19.8213018  20.1588921  26.7822499  20.1146584  19.8871509
  27.8878670  20.4053463  20.8796184  37.5290818  28.8812177  20.2418449
  37.2375627  29.2442158  21.0781910  36.9162950  28.1679185  20.0631781
  38.7286501  26.4465057  12.7621019  39.5633392  26.8854861  12.9258580
  38.8645629  25.9703710  11.9429265  35.7778007  24.0044792  18.7098507
  36.2532128  24.1972438  17.9017359  34.8543572  24.0603978  18.4641891
  22.6661513  25.1668959   8.2929585  22.4207555  24.2631289   8.4909796
  22.8357428  25.1686109   7.3509063  30.3558223  16.0392635  17.6754341
  30.8740167  16.7753662  17.3500830  30.0013356  16.3456629  18.5101100
  30.6070817  12.4592918  13.1955238  30.8872571  11.7916107  13.8215664
  31.3921424  12.6522013  12.6829901  28.4104286  31.6351912   4.7580264
  27.8378253  32.2542099   4.3050736  28.9837079  32.1851273   5.2920186
  34.4779676  20.8810552  16.9426813  35.4297098  20.9808650  16.9639037
  34.3083126  20.0888820  17.4524897  32.4994055  17.9666135  17.1286214
  31.9043987  18.2471148  16.4332702  32.2143752  18.4560036  17.9002955
  31.6301545  31.9189062   5.8888846  32.5632219  31.8534624   6.0921722
  31.5424758  32.7545329   5.4303379  34.2589562  31.2354932   2.8492794
  34.1803194  30.9014796   3.7428552  35.0799229  31.7276700   2.8484266
  36.9567753  24.1016672  16.0569112  36.9244073  23.1632672  16.2428796
  37.5668377  24.1800708  15.3234937  37.1062242  20.8927715  16.1027396
  36.5901290  20.1086172  15.9157324  37.9902190  20.5646432  16.2673915
  34.7672969  14.6368731  12.0623208  34.5697790  14.3283819  12.9466540
  35.3772674  15.3630369  12.1921138  42.7744303  25.1632678  15.1975149
  43.5047692  24.9017966  15.7582853  42.1651249  24.4261400  15.2377217
  40.8559600  23.3040541  15.7949600  40.1292764  23.1696506  15.1866092
  40.4406887  23.6117370  16.6006318  28.6789777  27.0230471  23.5596973
  29.5992786  27.2009070  23.7537020  28.6439360  26.0786516  23.4076673
  17.8971942  22.2169064  12.4850248  17.5774726  21.3634372  12.1924622
  17.3505370  22.4317642  13.2408215  21.6751849  24.9331505  16.2019755
  21.8937859  25.8648613  16.2207788  22.0877623  24.5739480  16.9874558
  26.5479715  20.5064711  25.5922504  26.4476441  21.4559068  25.5234595
  26.3301257  20.1782950  24.7198574  17.7660202  25.8371976  14.4543370
  17.0723673  25.4225929  13.9413324  18.5133193  25.8792512  13.8576789
  33.9025422  16.6278163   9.3198404  33.3224091  17.2862967   8.9376456
  33.6361355  15.8055507   8.9085821  32.3528989  16.0283220  11.5219724
  32.8528767  16.1399755  10.7134043  32.9964597  15.7244273  12.1620533
  26.4110985  23.9361850  24.4087565  25.9278066  24.7362210  24.6151454
  26.4971924  23.9469795  23.4555009  19.6796944  25.7690230  12.3309385
  19.6567632  25.8677917  11.3791268  19.9897581  26.6155380  12.6526551
  22.3384322  27.8266385  16.4455999  23.2927576  27.7950327  16.3785931
  22.1396846  27.3657008  17.2606225  22.9283704  26.3967501  19.0126797
  23.7476593  26.8911579  19.0361634  23.2020512  25.4799469  18.9844364
  32.6850300  18.7878253   8.3754752  31.7976155  19.0727904   8.1574947
  33.1004290  18.6272016   7.5282029  36.0364837  18.8124774  12.0909091
  36.8125227  19.3021226  12.3633708  35.3112971  19.2382828  12.5480961
  38.4737395  19.5252393  13.1483032  39.0681886  19.2848129  12.4376340
  38.5463979  18.8059524  13.7756568  20.6934551  33.3686004  13.4626197
  20.5589019  32.6086405  12.8964195  20.2766613  34.0926904  12.9954986
  31.8293514  28.5522928   2.4702772  32.5329364  28.7572930   3.0860428
  31.1056163  29.1199690   2.7351856  32.6591324  24.3032789   8.5905042
  32.6026526  24.7601340   7.7512675  33.2119667  23.5423473   8.4127885
  36.4696130  20.0922521   9.4155162  36.2133064  19.6919156  10.2463369
  35.8448998  20.8066315   9.2905301  40.7808468  22.8318594  11.9226453
  40.2208026  22.9011783  12.6958015  40.1751971  22.6559579  11.2025949
  23.8503677  34.2655321  13.6744639  23.7336061  35.2100754  13.5723330
  23.0296123  33.9628883  14.0630439  33.7380211  28.9905457   4.5201232
  34.5725815  28.5586655   4.3378707  33.5764554  28.8187471   5.4478127
  33.3926103  25.4937570   5.8857571  33.3374907  25.3281842   4.9446016
  32.7672159  26.2013603   6.0419761  18.1818618  20.7305635  19.7118994
  18.8277482  20.2204588  20.2006219  17.9735770  21.4674316  20.2862419
  30.7072011  27.7986482  25.2111134  31.5763170  27.9727134  24.8497769
  30.2278762  28.6180899  25.0886864  24.8758191  34.9183583  16.8900568
  25.7785438  34.9507193  17.2067063  24.6495561  33.9884034  16.9046904
  26.6311793  33.6714570  13.5510647  25.6807424  33.6716431  13.4375019
  26.9344279  32.9247304  13.0346681  22.5216109  17.8773252  23.8094008
  23.3847571  17.5210056  24.0197332  21.9481520  17.5387146  24.4969412
  42.3664486  39.5075108  14.6156409  43.0042896  39.3881855  13.9119749
  42.2485329  40.4555952  14.6744361  39.1754193  39.4602536  14.5517934
  38.8372704  39.3443601  13.6638468  40.0443961  39.0593701  14.5318940
  35.0341008  41.3138012  10.5414825  34.4705874  41.2227949   9.7731112
  34.9193403  40.4937917  11.0217317  39.6573976  40.6137388  20.5104139
  39.6462616  40.2190186  19.6384643  39.8194615  39.8803460  21.1037911
  32.5805440  42.8089204  13.3799045  33.3726732  42.4680029  12.9645344
  32.8202090  42.9184179  14.3001198  40.6140567  44.9808980   5.8529289
  39.9628547  45.5663061   5.4663303  41.4084930  45.5115175   5.9124327
  34.5396194  42.0698117   6.2516424  35.3127070  41.5227104   6.1129300
  34.8921593  42.9342367   6.4630885  36.3781237  43.3974500  19.4583323
  36.0871103  44.3020130  19.3429989  37.0138221  43.4391027  20.1727393
  37.3037444  40.7751348  16.0484683  37.9001016  40.5507370  15.3341646
  37.3612415  40.0336094  16.6510131  36.8762472  38.2290783   3.8834874
  37.1287993  37.7072305   3.1218337  35.9387031  38.0656929   3.9861557
  41.9205755  37.2326562  11.6909617  42.7068844  36.8145985  11.3400034
  42.1844459  38.1372654  11.8591265  42.0915832  42.6699412   6.3898274
  41.4561665  42.7434039   7.1019178  41.7613239  43.2593011   5.7117353
  47.3214182  37.1701795  12.5942595  48.0539354  36.6001012  12.8280425
  46.5653538  36.7823395  13.0349101  36.5958761  40.1318889   6.0859249
  36.4795019  39.4563793   6.7540333  36.7061021  39.6451263   5.2691402
  38.9390302  39.5929036   9.7905938  38.5748509  39.0659657  10.5018859
  39.7957418  39.2027506   9.6172423  44.8439602  30.8823369  17.0537204
  44.5122927  31.7518780  16.8298419  44.2485216  30.5659653  17.7331234
  38.5795789  34.6218936   4.7867286  38.7470191  35.4899173   5.1537757
  38.3892958  34.7846218   3.8628576  41.3371122  43.0835915  16.4533117
  41.0371845  43.9860954  16.3448924  40.9922181  42.8168098  17.3054270
  34.7883603  39.5349712  12.4869821  33.8634100  39.4025926  12.6947513
  35.0368017  40.3143931  12.9839764  44.7368266  35.6018455  14.1330554
  43.8285143  35.5333864  13.8389315  44.6855861  36.0790400  14.9612380
  38.5585010  37.0776594   5.7713953  38.4384635  37.5233644   6.6099434
  37.8637598  37.4261911   5.2127491  32.1492414  39.1782985  13.3213610
  32.2784796  39.4317464  14.2353022  31.4689866  39.7710693  13.0018265
  36.3191902  49.8480235   9.4204084  36.2415931  50.7988061   9.4992565
  35.7153545  49.5026108  10.0779011  38.8109131  37.0208101  22.0765451
  38.0342466  37.5802021  22.0668316  39.4499695  37.5064884  22.5980322
  46.6029912  33.8034894  15.9108428  45.9604292  34.0967427  15.2648223
  46.0984841  33.6887814  16.7161625  44.2570076  37.5498067   6.5994287
  45.1687932  37.7825454   6.4241985  43.7479723  38.1335111   6.0369366
  37.0655504  39.8293554  21.6383418  37.8070188  40.3678598  21.3618242
  36.3592489  40.4559843  21.7954970  42.5410843  41.9722695  20.2355580
  42.9494199  41.5305105  19.4910212  41.8188105  41.3975322  20.4889773
  38.8941913  36.9095301  17.6089137  39.7403109  37.3334715  17.7523786
  38.8340551  36.2528926  18.3027700  42.8639658  42.5323885  13.9907869
  42.2348521  42.6969599  13.2883937  42.4765320  42.9465495  14.7618833
  46.7428890  43.4678323  11.3452233  46.0579928  43.8477225  10.7949266
  46.8272739  44.0773650  12.0784180  42.0441359  34.5699670  19.2670310
  41.8002291  35.3241730  18.7304586  42.3201289  34.9485017  20.1017558
  43.9979822  41.1138282  17.9447576  44.2096717  41.7570042  17.2681957
  43.9509570  40.2800599  17.4769506  41.6006051  33.7256103  14.8484148
  40.7390530  34.0237356  15.1400886  41.6268485  33.9426502  13.9165181
  38.4167620  42.2698293  11.2557954  38.8805965  42.5485996  10.4662576
  38.1524418  41.3681738  11.0731045  35.3091701  41.8169775  14.1937717
  35.8793058  42.2457043  13.5555202  35.8999813  41.5352360  14.8921903
  37.3536506  38.3921446   8.0647519  38.0560549  38.8442489   8.5321445
  37.0217134  37.7505265   8.6927412  35.8016868  36.9833202  22.4398728
  35.1715528  37.6649483  22.6734125  35.6952955  36.8716284  21.4951867
  31.0961840  36.6504998  13.3664653  30.3060894  36.9062527  12.8904763
  31.5873087  37.4653336  13.4716693  45.1125650  43.9910238  16.1169933
  45.9343093  43.5890425  15.8352615  45.1088052  43.8878472  17.0686049
  33.0476585  37.0149578  10.3248129  32.2507749  37.1268272  10.8431625
  32.8202178  37.3536230   9.4589020  38.8782253  43.5394281  18.2730644
  38.9426685  44.0014688  19.1088816  38.1693177  42.9091646  18.4012954
  29.3799543  36.9035489  15.7979643  29.6307581  37.7882499  16.0637219
  29.9159091  36.7240090  15.0254735  53.2031643  40.3348986  12.4654905
  52.4495351  39.7656384  12.3098909  53.3379184  40.3011651  13.4125540
  38.5930271  45.2062388   8.1409624  38.4575945  46.0513924   8.5694472
  39.1340083  45.4081666   7.3775558  35.0797610  31.2853968  24.8023979
  34.6864556  30.7320167  25.4771624  35.8963751  31.5964547  25.1930497
  32.0459668  42.7237826   8.7137549  32.5584189  43.5181077   8.8643114
  32.6982381  42.0264117   8.6471151  33.8554553  45.8403583  10.7960302
  34.0321181  46.7621547  10.6081286  34.6511386  45.5262002  11.2254682
  37.9965571  32.7011847  22.3944236  38.7375285  33.3019000  22.3148698
  38.2283494  31.9589485  21.8362279  33.1406909  37.8868215  20.6722466
  33.0260424  36.9853472  20.9729565  32.2851427  38.1331911  20.3207282
  40.2198747  45.8285955  22.2709966  39.7762601  45.0422333  21.9530871
  40.8815961  46.0165105  21.6053857  34.9785868  47.3581756  16.7970645
  35.5293293  47.2298820  16.0247639  34.1397344  47.6576646  16.4465538
  42.3179985  46.1088755  20.2991368  42.2998460  46.9297636  19.8071637
  43.2399905  45.9842830  20.5241509  38.7753039  43.6232884  21.1414876
  39.3081376  42.8621172  20.9114184  38.2467120  43.3306536  21.8839030
  41.9422734  28.7292950  16.6708518  41.5987004  29.6194592  16.5947628
  42.3101697  28.5394608  15.8078103  30.0108585  41.0526481   9.4897120
  30.8483807  41.4623489   9.2730828  30.1886852  40.1125923   9.4597314
  41.9073017  38.7201561   5.1780953  41.3919640  39.4906166   5.4169340
  41.6350325  38.0466698   5.8014014  39.4920128  33.5651262  10.2366191
  38.6361724  33.1758113  10.0571830  39.9047080  33.6443223   9.3765977
  41.0219275  31.0997605  14.6357751  40.5184070  31.0627741  13.8225556
  41.3149881  32.0090348  14.6954408  37.2662160  31.1836335  13.6423933
  38.1315157  30.9879144  13.2829822  37.3339669  30.9546687  14.5693289
  46.8807291  41.4733916   7.1134126  46.1036734  41.1345076   6.6689288
  47.5598772  41.4786539   6.4389091  41.6959320  36.5928653   7.0040734
  41.3909456  36.9074803   7.8550877  42.6489762  36.6710073   7.0468067
  40.1405752  42.7518877   8.6533688  39.6127113  42.0171636   8.3406925
  39.6393255  43.5293553   8.4073656  45.1198598  40.9467897  13.7700734
  44.4622272  41.6367159  13.8580863  45.9238997  41.3364329  14.1134721
  34.8724480  33.4138543  11.0140299  35.4468231  33.1913725  10.2813492
  35.4595462  33.4827238  11.7668901  43.9304057  39.3012270  11.8204676
  44.4435938  39.9342262  12.3226386  44.5805281  38.7013465  11.4548036
  35.1994067  35.4443004   5.0336185  34.3631379  35.7817691   5.3545459
  35.0598836  35.3091984   4.0963322  37.1747147  30.2879792   9.7415369
  36.5211560  29.9728809   9.1171984  37.1327621  29.6655532  10.4675192
  38.2858352  40.5699087   1.6568661  37.3785414  40.3388341   1.8559810
  38.7829384  39.7736706   1.8442643  41.1926431  49.2796594   4.5765347
  40.5188130  49.5828291   5.1850305  41.5792253  50.0825675   4.2270804
  40.4084888  36.7761726  14.0663017  39.4907449  36.9976673  13.9084705
  40.8245031  36.8508036  13.2074724  41.1919935  38.1753141   9.1965697
  41.9391754  38.6874538   8.8872819  41.4611525  37.8537194  10.0570090
  39.4646586  40.6711682   6.1792651  38.5557805  40.3870715   6.2765121
  39.4941669  41.0910760   5.3195958  44.6965853  44.2818271   9.9483819
  44.2428180  43.4409181  10.0049009  44.0659820  44.9179670  10.2858599
  43.6398773  35.2110257  11.1784486  42.9021529  34.6987644  11.5094729
  43.8925546  34.7710639  10.3667763  43.1398792  46.1194768  10.8833637
  43.4321767  46.6799825  10.1646002  43.6497413  46.4123329  11.6386796
  43.7410400  27.9886509  11.7726255  44.0469277  27.1283873  11.4852170
  44.4663005  28.5804130  11.5725249  30.0334756  38.3917196  10.1607853
  29.8359156  37.7986557   9.4358920  29.4781420  38.0869406  10.8783792
  38.0131480  38.2840303  12.2802446  38.0680089  37.3314139  12.2044923
  37.2022682  38.4399742  12.7643745  39.1622673  42.2120426   3.5180730
  38.7242103  41.4956285   3.0586367  39.9033114  42.4396540   2.9565821
  35.9523839  36.9017362  10.0392825  35.1391705  37.2011533  10.4458017
  36.4482834  36.5073051  10.7567308  38.1032417  46.8975119  11.9727090
  38.0608596  47.1235966  11.0435622  39.0195116  46.6638494  12.1212891
  41.5498051  37.3659187  18.8707719  41.9047439  37.5930660  19.7302185
  42.1970182  37.6977564  18.2484974  47.2795788  40.4877623   9.5757048
  47.1413687  40.6779219   8.6478237  46.9232007  41.2497005  10.0325099
  35.4437914  34.4735718  15.6554060  36.0837294  34.3324477  14.9577024
  34.6115445  34.1870231  15.2792662  47.3065168  42.5554150  14.5868320
  47.7401674  42.4629439  15.4351374  48.0196748  42.5311650  13.9488336
  36.2198218  43.7738148  11.7689053  37.0138817  43.2788468  11.5671628
  35.5089911  43.2456011  11.4056758  41.0393063  46.1556244  16.1201420
  41.0930085  46.7247180  16.8879136  40.1707844  46.3258129  15.7555457
  32.5280982  37.9181230   7.8448805  31.5978570  37.8565685   8.0618768
  32.6238454  37.3957183   7.0485447  32.4466531  34.4436043  10.4327047
  32.7073348  35.3581376  10.3236208  33.2683703  33.9760485  10.5823660
  33.9191456  35.8573800  17.6025872  34.5914509  35.6491162  16.9538520
  33.0921243  35.6595886  17.1631104  48.1680717  42.5977850  17.1201205
  48.3616607  43.5023661  17.3660480  48.0681335  42.1385269  17.9539790
  39.8217028  32.4835741  19.6191532  39.1744943  33.1825691  19.5256009
  40.5918043  32.9171885  19.9867781  43.2295826  42.7484593  22.6942086
  43.0781332  42.5195145  21.7772169  43.2200505  43.7055194  22.7073431
  39.9981162  40.3216506  17.6788352  40.9273222  40.4727665  17.5057319
  39.5772192  40.4100527  16.8236999  38.7969494  44.3467170  15.4486890
  38.6580580  43.9785955  16.3212828  38.0084090  44.8614810  15.2770848
  39.3917646  49.4476267   6.7912426  39.5669402  48.9764310   7.6058049
  38.7050434  50.0742033   7.0193687  40.3474709  43.7248773  12.8375728
  40.0124542  43.6849543  13.7333377  39.8478655  43.0593489  12.3646138
  34.3218953  39.1316403  18.3628309  34.1838751  38.3996642  18.9639848
  35.2323877  39.0425303  18.0812496  43.2833901  41.0704807   3.1112787
  42.6663072  40.3451635   3.0145840  42.8150389  41.8314168   2.7679862
  36.9501254  38.8436362  17.8511988  37.6600872  38.2029554  17.8098607
  36.9070562  39.0949257  18.7738169  44.9388033  45.7803716  20.7718568
  44.8800579  45.0962936  20.1049151  45.3407551  46.5222706  20.3199194
  35.6630188  35.8301580  19.6707628  35.1267545  35.3792319  20.3229224
  35.0746896  35.9647489  18.9278092  33.9578731  52.5965629  13.5652286
  34.1975330  53.2284154  14.2431305  33.1147928  52.2453669  13.8517646
  35.0732447  35.2890232   2.2334092  34.1961913  35.1679032   1.8696338
  35.5490200  34.4976310   1.9812980  44.9405440  43.7443300  19.0032547
  44.0532219  43.4069221  19.1258946  45.5103991  43.0126331  19.2401313
  26.5934587  40.0767391  12.3275599  27.2805627  39.7629121  11.7396614
  26.4382716  40.9808756  12.0542850  31.3969309  34.9657588  16.7560622
  31.3127498  34.3583257  16.0211032  30.5752016  35.4566606  16.7570119
  38.4706593  48.4044752  15.9693790  38.3976765  49.2099723  16.4813095
  38.0283986  48.6036718  15.1441812  38.2596373  47.6416522   9.4796612
  37.4763895  48.1838202   9.5734837  38.9589118  48.1590502   9.8790853
  41.5693023  33.4511151  12.1230817  42.0661723  32.6981114  11.8031888
  40.7980005  33.4875468  11.5574027  49.4222780  39.1551517  13.7649109
  49.4112657  40.0376232  13.3943042  48.5540160  38.8023068  13.5703646
  40.9305277  48.3031586  18.1251949  41.6433249  48.9379051  18.0527851
  40.4395305  48.3995452  17.3091951  42.6522804  42.2082839   9.6969241
  41.7179082  42.3284301   9.5273945  42.8299472  41.3055305   9.4329251
  38.1527992  35.5928534  11.8502502  37.7825779  35.0399575  12.5383408
  38.6487084  34.9886668  11.2977502  46.0395355  38.0500158  10.2319275
  46.5055807  38.8828149  10.1579578  46.4902856  37.5845139  10.9364533
  35.9817190  46.0526029  18.9457520  36.6826650  46.6862512  19.0986914
  35.5112305  46.3940761  18.1853159  44.1071586  44.3943979   7.2305427
  44.3831430  44.2800574   8.1399301  43.2376085  43.9961464   7.1917600
  44.0112018  30.4180745  14.2710176  43.0975098  30.6484972  14.4392383
  44.4405119  30.5019189  15.1224209  43.7818476  38.6070637  16.7710070
  43.1289927  38.8546544  16.1162523  44.1598856  37.7934775  16.4372548
  40.7425650  48.6430330  10.8738241  40.9248045  47.8251986  11.3365993
  41.5658636  48.8598022  10.4363131  41.0767816  47.5698515   8.1353289
  41.6055582  47.0590970   7.5223451  41.3396035  47.2541045   8.9998822
  39.8306049  39.3490448  23.2576107  39.1546686  39.2484577  23.9278483
  40.6533683  39.1929662  23.7212105  31.5784908  45.5862384  15.8788623
  32.1638345  44.8406072  16.0116527  31.3809747  45.8966341  16.7625287
  34.4323564  48.6213632  10.8951065  33.7633939  49.1059759  10.4115105
  34.2936433  48.8682852  11.8094444  26.1702563  38.1567985  14.5993066
  26.2086663  37.6231575  15.3930184  25.6642856  37.6303190  13.9804043
  38.5728832  50.6557375  17.4933723  39.1247140  50.8188997  18.2582809
  38.9135026  51.2461813  16.8213748  33.5493325  33.0032525  18.0955608
  33.6134652  33.8647356  17.6833006  33.4860446  32.3906527  17.3627967
  33.0245598  35.0755658  21.7428642  33.6517637  34.6932735  22.3566167
  32.1673517  34.8569860  22.1084335  43.4239707  45.4818633  23.3482378
  43.9679611  46.0948591  22.8537333  42.8426551  46.0398211  23.8649391
  29.8011141  36.8832087   7.6746997  30.0964582  35.9742765   7.6214051
  28.8999176  36.8619826   7.3528000  41.7097219  48.6039351  14.4797406
  41.5848359  47.8029091  13.9708351  42.3676311  49.0985544  13.9911376
  33.3305388  34.9588083  13.6574546  32.6091973  35.5724051  13.5182019
  34.1198643  35.4945848  13.5791192  43.7732128  46.4048371  16.1076956
  42.8262463  46.2853722  16.0355282  44.1214901  45.5170869  16.1903217
  36.1331701  32.2942510  19.9315198  36.6566103  32.5404806  20.6941507
  35.9144035  33.1262545  19.5118335  31.5298982  34.5646184   7.7986322
  31.2011688  33.6843563   7.6161428  31.8838353  34.5093853   8.6862712
  40.7778561  46.2001087  12.3081308  40.6303524  45.2717795  12.4888878
  41.6032055  46.2221178  11.8238383  34.6440805  34.8519154   8.1661800
  34.9836878  35.3805075   7.4440408  35.0912926  35.1899560   8.9420367
  44.3812683  47.0229646  13.3946181  45.3059230  46.8172507  13.2570632
  44.2127986  46.7746047  14.3035522  37.3384246  33.2356205  17.6164868
  36.9981067  32.4364018  18.0185548  36.6323253  33.5357916  17.0441701
  37.9900718  30.3205517  16.0692191  38.8126787  29.8465996  15.9471081
  38.2338782  31.0996001  16.5690877  36.6308953  33.3493776   6.3655093
  37.3517315  33.7275029   5.8618810  36.0074257  34.0682653   6.4690071
  40.7740075  34.0538925   7.3013425  40.9903690  34.9363563   7.0002253
  40.2934143  33.6625138   6.5719067  35.5139297  37.0124638  13.8784170
  35.3683878  37.3264941  14.7708451  35.0364500  37.6309538  13.3255068
  37.3735680  34.0027186  13.9265059  37.3597248  33.1068279  13.5897357
  38.0908108  34.0097850  14.5603345  39.2261810  34.4364526  15.9718187
  38.9679588  35.3581597  15.9702517  38.6946851  34.0394961  16.6618651
  44.1707999  47.5415313   8.7508272  44.3444877  46.9761736   7.9982125
  44.6636890  48.3416208   8.5687762  29.9884959  39.5529982  16.8171831
  29.4438427  40.3289790  16.9492105  30.8664309  39.9000787  16.6590952
  36.7772576  32.8841566   9.1952629  36.8988487  31.9558212   9.3943517
  36.4874618  32.8980252   8.2830945  39.6463766  30.5696477  12.3319349
  39.6685463  30.6335810  11.3771329  40.0631825  29.7300985  12.5259855
  50.0247390  40.3051736  10.3698572  50.4678536  39.5559061   9.9717695
  49.1473901  40.2961873   9.9872304  45.1583172  46.8582078   5.8505170
  45.8534076  47.4788770   6.0692485  45.5006322  46.0077429   6.1257548
  30.7750981  38.6799879  19.7101988  30.0332717  38.8282514  20.2966618
  30.4543725  38.9408144  18.8468737  47.0574595  44.3081783   7.3792501
  47.5825919  44.6469056   6.6541821  46.9696947  43.3728799   7.1955636
  38.7194644  48.2215857  19.5082378  39.0281770  47.9765004  20.3805077
  39.5170126  48.4262495  19.0201248  38.7415256  50.3753767  11.7387754
  38.3020246  49.8830145  12.4320611  39.4923373  49.8326734  11.4979830
  31.2207595  46.5665307  11.7412382  32.0465614  46.2669079  11.3611026
  30.8701647  45.7972930  12.1902171  36.1889128  45.9191776  13.8110056
  35.5669137  45.2562481  13.5112284  36.8593995  45.9452908  13.1283704
  29.4216200  44.4851634  12.7001316  28.5848108  44.0573808  12.5185317
  29.3939845  44.6784077  13.6372107  36.2613655  34.3973564  23.4042562
  36.3101811  35.2735686  23.0220332  36.8036169  33.8550957  22.8314205
  46.7468501  44.9414687  22.6843699  45.9564045  44.9238826  22.1448198
  46.5101855  45.4802981  23.4392736  46.8666376  41.7907153  19.9976428
  46.9164381  41.6257161  20.9391950  46.7580299  40.9234412  19.6074308
  35.7502635  44.4695699   7.2868517  35.8990755  45.1531163   6.6335189
  36.5569078  44.4500789   7.8017972  44.1570138  37.7738081  21.3135734
  45.0580001  37.6344546  21.0219732  44.2318113  37.9392536  22.2533912
  38.4912944  35.1504936  20.1588921  37.6216253  35.4438502  19.8871509
  38.7272424  35.7345381  20.8796184  48.3684573  44.2104095  20.2418449
  48.0769381  44.5734075  21.0781910  47.7556704  43.4971103  20.0631781
  49.5680255  41.7756975  12.7621019  50.4027146  42.2146779  12.9258580
  49.7039384  41.2995628  11.9429265  46.6171761  39.3336709  18.7098507
  47.0925883  39.5264356  17.9017359  45.6937326  39.3895895  18.4641891
  33.5055268  40.4960877   8.2929585  33.2601310  39.5923207   8.4909796
  33.6751182  40.4978027   7.3509063  41.1951977  31.3684553  17.6754341
  41.7133921  32.1045580  17.3500830  40.8407110  31.6748546  18.5101100
  32.7750915  36.2289234   5.7915747  32.0820160  36.3033589   5.1355783
  32.5302667  35.4649578   6.3137264  41.4464572  27.7884836  13.1955238
  41.7266325  27.1208025  13.8215664  42.2315179  27.9813931  12.6829901
  39.2498040  46.9643829   4.7580264  38.6772007  47.5834017   4.3050736
  39.8230834  47.5143191   5.2920186  45.3173430  36.2102470  16.9426813
  46.2690853  36.3100567  16.9639037  45.1476880  35.4180738  17.4524897
  43.3387809  33.2958053  17.1286214  42.7437742  33.5763065  16.4332702
  43.0537506  33.7851954  17.9002955  42.4695300  47.2480980   5.8888846
  43.4025973  47.1826541   6.0921722  42.3818513  48.0837246   5.4303379
  45.0983317  46.5646850   2.8492794  45.0196948  46.2306713   3.7428552
  45.9192983  47.0568618   2.8484266  47.7961508  39.4308589  16.0569112
  47.7637828  38.4924590  16.2428796  48.4062131  39.5092626  15.3234937
  39.6344839  38.3004642   2.0996316  40.5803943  38.1710850   2.1684734
  39.2559084  37.5619304   2.5765745  47.9455996  36.2219633  16.1027396
  47.4295045  35.4378089  15.9157324  48.8295945  35.8938349  16.2673915
  45.6066723  29.9660648  12.0623208  45.4091544  29.6575736  12.9466540
  46.2166429  30.6922287  12.1921138  53.6138058  40.4924596  15.1975149
  54.3441446  40.2309884  15.7582853  53.0045003  39.7553318  15.2377217
  51.6953355  38.6332459  15.7949600  50.9686518  38.4988424  15.1866092
  51.2800642  38.9409287  16.6006318  39.5183531  42.3522388  23.5596973
  40.4386541  42.5300987  23.7537020  39.4833114  41.4078434  23.4076673
  37.8187756  36.2254619   2.0351202  36.9119211  35.9287731   2.1113915
  38.0963737  35.9284437   1.1685488  28.7365696  37.5460982  12.4850248
  28.4168481  36.6926290  12.1924622  28.1899124  37.7609560  13.2408215
  32.5145604  40.2623423  16.2019755  32.7331614  41.1940531  16.2207788
  32.9271378  39.9031397  16.9874558  39.4349822  30.7691508   8.1895443
  38.6250550  30.4238593   8.5650689  40.1234238  30.4599052   8.7783055
  41.3640370  29.8469555   9.8119740  41.9171408  30.2665009  10.4709763
  41.6010456  28.9205303   9.8542696  37.3873469  35.8356629  25.5922504
  37.2870196  36.7850986  25.5234595  37.1695011  35.5074868  24.7198574
  36.5886540  33.0841554   2.1763181  37.4505704  33.4096452   2.4358998
  36.7736885  32.2973050   1.6636247  28.6053956  41.1663893  14.4543370
  27.9117428  40.7517846  13.9413324  29.3526947  41.2084430  13.8576789
  44.7419177  31.9570080   9.3198404  44.1617846  32.6154884   8.9376456
  44.4755110  31.1347425   8.9085821  43.1922743  31.3575138  11.5219724
  43.6922522  31.4691672  10.7134043  43.8358351  31.0536191  12.1620533
  37.2504739  39.2653768  24.4087565  36.7671821  40.0654128  24.6151454
  37.3365678  39.2761712  23.4555009  30.5190699  41.0982147  12.3309385
  30.4961387  41.1969835  11.3791268  30.8291335  41.9447298  12.6526551
  33.1778077  43.1558302  16.4455999  34.1321330  43.1242245  16.3785931
  32.9790600  42.6948926  17.2606225  33.7677459  41.7259418  19.0126797
  34.5870348  42.2203497  19.0361634  34.0414266  40.8091386  18.9844364
  43.5244055  34.1170171   8.3754752  42.6369910  34.4019821   8.1574947
  43.9398044  33.9563934   7.5282029  46.8758591  34.1416692  12.0909091
  47.6518981  34.6313144  12.3633708  46.1506725  34.5674746  12.5480961
  49.3131150  34.8544311  13.1483032  49.9075640  34.6140047  12.4376340
  49.3857733  34.1351441  13.7756568  31.5328305  48.6977922  13.4626197
  31.3982773  47.9378323  12.8964195  31.1160368  49.4218822  12.9954986
  42.6687268  43.8814845   2.4702772  43.3723119  44.0864848   3.0860428
  41.9449917  44.4491607   2.7351856  43.4985079  39.6324707   8.5905042
  43.4420280  40.0893258   7.7512675  44.0513421  38.8715391   8.4127885
  47.3089885  35.4214438   9.4155162  47.0526819  35.0211074  10.2463369
  46.6842753  36.1358232   9.2905301  51.6202222  38.1610512  11.9226453
  51.0601780  38.2303701  12.6958015  51.0145726  37.9851496  11.2025949
  34.6897431  49.5947239  13.6744639  34.5729815  50.5392671  13.5723330
  33.8689878  49.2920800  14.0630439  44.5773966  44.3197374   4.5201232
  45.4119570  43.8878573   4.3378707  44.4158309  44.1479388   5.4478127
  44.2319858  40.8229488   5.8857571  44.1768662  40.6573759   4.9446016
  43.6065913  41.5305521   6.0419761  29.0212373  36.0597552  19.7118994
  29.6671237  35.5496506  20.2006219  28.8129524  36.7966234  20.2862419
  41.5465765  43.1278400  25.2111134  42.4156925  43.3019052  24.8497769
  41.0672517  43.9472816  25.0886864  37.5415983  30.3237597   5.4642890
  37.5294653  31.2679437   5.6211161  38.4339405  30.1407742   5.1702351
  35.7151945  50.2475501  16.8900568  36.6179192  50.2799111  17.2067063
  35.4889315  49.3175952  16.9046904  37.4705547  49.0006487  13.5510647
  36.5201178  49.0008349  13.4375019  37.7738034  48.2539222  13.0346681
  41.3568103  26.9180373   9.7188827  40.5900499  26.3638860   9.8645509
  41.7678808  26.9902242  10.5802978  33.3609864  33.2065169  23.8094008
  34.2241326  32.8501974  24.0197332  32.7875275  32.8679064  24.4969412
  53.2058241  54.8367026  14.6156409  53.8436651  54.7173773  13.9119749
  53.0879084  55.7847870  14.6744361  50.0147947  54.7894454  14.5517934
  49.6766459  54.6735518  13.6638468  50.8837715  54.3885619  14.5318940
  45.8734763  56.6429930  10.5414825  45.3099628  56.5519867   9.7731112
  45.7587158  55.8229835  11.0217317  50.4967730  55.9429305  20.5104139
  50.4856371  55.5482104  19.6384643  50.6588370  55.2095378  21.1037911
  43.4199195  58.1381122  13.3799045  44.2120487  57.7971946  12.9645344
  43.6595845  58.2476097  14.3001198  45.3789949  57.3990035   6.2516424
  46.1520825  56.8519022   6.1129300  45.7315348  58.2634284   6.4630885
  47.2174991  58.7266417  19.4583323  46.9264857  59.6312048  19.3429989
  47.8531976  58.7682945  20.1727393  48.1431198  56.1043266  16.0484683
  48.7394770  55.8799288  15.3341646  48.2006170  55.3628011  16.6510131
  52.7599509  52.5618479  11.6909617  53.5462599  52.1437903  11.3400034
  53.0238214  53.4664572  11.8591265  58.1607937  52.4993713  12.5942595
  58.8933108  51.9292929  12.8280425  57.4047292  52.1115313  13.0349101
  47.4352515  55.4610807   6.0859249  47.3188773  54.7855710   6.7540333
  47.5454775  54.9743181   5.2691402  49.7784056  54.9220954   9.7905938
  49.4142263  54.3951575  10.5018859  50.6351172  54.5319423   9.6172423
  55.6833357  46.2115287  17.0537204  55.3516682  47.0810698  16.8298419
  55.0878970  45.8951571  17.7331234  49.4189543  49.9510854   4.7867286
  49.5863946  50.8191090   5.1537757  49.2286712  50.1138136   3.8628576
  52.1764876  58.4127833  16.4533117  51.8765599  59.3152872  16.3448924
  51.8315936  58.1460016  17.3054270  45.6277358  54.8641630  12.4869821
  44.7027854  54.7317844  12.6947513  45.8761771  55.6435849  12.9839764
  55.5762020  50.9310373  14.1330554  54.6678898  50.8625781  13.8389315
  55.5249616  51.4082318  14.9612380  49.3978764  52.4068511   5.7713953
  49.2778389  52.8525562   6.6099434  48.7031352  52.7553829   5.2127491
  42.9886169  54.5074903  13.3213610  43.1178550  54.7609382  14.2353022
  42.3083620  55.1002611  13.0018265  49.6502886  52.3500019  22.0765451
  48.8736220  52.9093939  22.0668316  50.2893449  52.8356802  22.5980322
  57.4423667  49.1326811  15.9108428  56.7998047  49.4259344  15.2648223
  56.9378595  49.0179732  16.7161625  47.9049258  55.1585472  21.6383418
  48.6463943  55.6970516  21.3618242  47.1986244  55.7851761  21.7954970
  53.3804598  57.3014612  20.2355580  53.7887954  56.8597023  19.4910212
  52.6581859  56.7267240  20.4889773  49.7335668  52.2387219  17.6089137
  50.5796863  52.6626633  17.7523786  49.6734306  51.5820843  18.3027700
  53.7033413  57.8615803  13.9907869  53.0742275  58.0261517  13.2883937
  53.3159075  58.2757413  14.7618833  57.5822644  58.7970241  11.3452233
  56.8973683  59.1769142  10.7949266  57.6666494  59.4065567  12.0784180
  52.8835113  49.8991587  19.2670310  52.6396045  50.6533648  18.7304586
  53.1595044  50.2776935  20.1017558  54.8373576  56.4430200  17.9447576
  55.0490471  57.0861960  17.2681957  54.7903324  55.6092516  17.4769506
  52.4399805  49.0548021  14.8484148  51.5784284  49.3529274  15.1400886
  52.4662240  49.2718419  13.9165181  49.2561374  57.5990211  11.2557954
  49.7199720  57.8777914  10.4662576  48.9918173  56.6973656  11.0731045
  46.1485455  57.1461693  14.1937717  46.7186813  57.5748961  13.5555202
  46.7393567  56.8644277  14.8921903  48.1930260  53.7213363   8.0647519
  48.8954304  54.1734407   8.5321445  47.8610889  53.0797182   8.6927412
  46.6410622  52.3125120  22.4398728  46.0109283  52.9941401  22.6734125
  46.5346710  52.2008202  21.4951867  41.9355594  51.9796916  13.3664653
  41.1454648  52.2354445  12.8904763  42.4266842  52.7945254  13.4716693
  55.9519404  59.3202155  16.1169933  56.7736848  58.9182343  15.8352615
  55.9481807  59.2170389  17.0686049  43.8870340  52.3441495  10.3248129
  43.0901503  52.4560190  10.8431625  43.6595932  52.6828148   9.4589020
  49.7176007  58.8686199  18.2730644  49.7820440  59.3306606  19.1088816
  49.0086931  58.2383563  18.4012954  40.2193297  52.2327407  15.7979643
  40.4701336  53.1174416  16.0637219  40.7552846  52.0532008  15.0254735
  64.0425397  55.6640904  12.4654905  63.2889105  55.0948302  12.3098909
  64.1772938  55.6303568  13.4125540  45.9191365  46.6145886  24.8023979
  45.5258310  46.0612084  25.4771624  46.7357505  46.9256464  25.1930497
  42.8853422  58.0529744   8.7137549  43.3977943  58.8472994   8.8643114
  43.5376135  57.3556035   8.6471151  44.6948307  61.1695500  10.7960302
  44.8714936  62.0913465  10.6081286  45.4905141  60.8553920  11.2254682
  48.8359326  48.0303765  22.3944236  49.5769039  48.6310918  22.3148698
  49.0677249  47.2881403  21.8362279  43.9800664  53.2160132  20.6722466
  43.8654179  52.3145389  20.9729565  43.1245181  53.4623829  20.3207282
  51.0592501  61.1577873  22.2709966  50.6156356  60.3714251  21.9530871
  51.7209715  61.3457023  21.6053857  45.8179623  62.6873674  16.7970645
  46.3687048  62.5590738  16.0247639  44.9791099  62.9868563  16.4465538
  53.1573740  61.4380672  20.2991368  53.1392215  62.2589554  19.8071637
  54.0793660  61.3134748  20.5241509  49.6146794  58.9524802  21.1414876
  50.1475131  58.1913090  20.9114184  49.0860875  58.6598454  21.8839030
  52.7816489  44.0584868  16.6708518  52.4380758  44.9486510  16.5947628
  53.1495451  43.8686526  15.8078103  40.8502339  56.3818398   9.4897120
  41.6877561  56.7915407   9.2730828  41.0280607  55.4417841   9.4597314
  50.3313882  48.8943180  10.2366191  49.4755479  48.5050030  10.0571830
  50.7440834  48.9735141   9.3765977  51.8613029  46.4289523  14.6357751
  51.3577825  46.3919658  13.8225556  52.1543636  47.3382266  14.6954408
  48.1055915  46.5128253  13.6423933  48.9708912  46.3171062  13.2829822
  48.1733424  46.2838605  14.5693289  52.5353075  51.9220571   7.0040734
  52.2303210  52.2366720   7.8550877  53.4883517  52.0001991   7.0468067
  50.9799506  58.0810794   8.6533688  50.4520868  57.3463554   8.3406925
  50.4787009  58.8585471   8.4073656  55.9592352  56.2759815  13.7700734
  55.3016027  56.9659076  13.8580863  56.7632752  56.6656247  14.1134721
  45.7118234  48.7430461  11.0140299  46.2861986  48.5205642  10.2813492
  46.2989216  48.8119155  11.7668901  54.7697811  54.6304188  11.8204676
  55.2829693  55.2634179  12.3226386  55.4199035  54.0305383  11.4548036
  46.0387821  50.7734922   5.0336185  45.2025133  51.1109608   5.3545459
  45.8992591  50.6383902   4.0963322  48.0140902  45.6171710   9.7415369
  47.3605314  45.3020727   9.1171984  47.9721376  44.9947450  10.4675192
  51.2478642  52.1053643  14.0663017  50.3301203  52.3268590  13.9084705
  51.6638786  52.1799954  13.2074724  52.0313690  53.5045059   9.1965697
  52.7785509  54.0166456   8.8872819  52.3005279  53.1829112  10.0570090
  54.4792527  50.5402175  11.1784486  53.7415284  50.0279561  11.5094729
  54.7319301  50.1002557  10.3667763  54.5804154  43.3178427  11.7726255
  54.8863031  42.4575791  11.4852170  55.3056759  43.9096047  11.5725249
  40.8728510  53.7209114  10.1607853  40.6752910  53.1278474   9.4358920
  40.3175174  53.4161324  10.8783792  48.8525234  53.6132220  12.2802446
  48.9073844  52.6606057  12.2044923  48.0416436  53.7691659  12.7643745
  46.7917594  52.2309280  10.0392825  45.9785460  52.5303450  10.4458017
  47.2876588  51.8364969  10.7567308  48.9426172  62.2267037  11.9727090
  48.9002351  62.4527883  11.0435622  49.8588871  61.9930411  12.1212891
  52.3891806  52.6951104  18.8707719  52.7441193  52.9222578  19.7302185
  53.0363937  53.0269481  18.2484974  46.2831669  49.8027635  15.6554060
  46.9231048  49.6616395  14.9577024  45.4509199  49.5162149  15.2792662
  58.1458922  57.8846067  14.5868320  58.5795429  57.7921356  15.4351374
  58.8590503  57.8603568  13.9488336  47.0591973  59.1030066  11.7689053
  47.8532571  58.6080386  11.5671628  46.3483665  58.5747929  11.4056758
  51.8786817  61.4848161  16.1201420  51.9323839  62.0539098  16.8879136
  51.0101598  61.6550046  15.7555457  43.3674736  53.2473148   7.8448805
  42.4372324  53.1857603   8.0618768  43.4632208  52.7249100   7.0485447
  43.2860285  49.7727960  10.4327047  43.5467102  50.6873294  10.3236208
  44.1077457  49.3052403  10.5823660  44.7585211  51.1865718  17.6025872
  45.4308264  50.9783080  16.9538520  43.9314997  50.9887804  17.1631104
  59.0074472  57.9269768  17.1201205  59.2010362  58.8315578  17.3660480
  58.9075090  57.4677187  17.9539790  50.6610783  47.8127659  19.6191532
  50.0138698  48.5117608  19.5256009  51.4311798  48.2463802  19.9867781
  54.0689580  58.0776511  22.6942086  53.9175087  57.8487062  21.7772169
  54.0594260  59.0347112  22.7073431  50.8374917  55.6508423  17.6788352
  51.7666977  55.8019583  17.5057319  50.4165947  55.7392444  16.8236999
  49.6363249  59.6759088  15.4486890  49.4974334  59.3077872  16.3212828
  48.8477845  60.1906727  15.2770848  51.1868464  59.0540691  12.8375728
  50.8518296  59.0141461  13.7333377  50.6872409  58.3885406  12.3646138
  45.1612708  54.4608321  18.3628309  45.0232506  53.7288559  18.9639848
  46.0717631  54.3717221  18.0812496  47.7895008  54.1728280  17.8511988
  48.4994627  53.5321472  17.8098607  47.7464317  54.4241175  18.7738169
  55.7781787  61.1095633  20.7718568  55.7194333  60.4254853  20.1049151
  56.1801305  61.8514623  20.3199194  46.5023942  51.1593498  19.6707628
  45.9661299  50.7084236  20.3229224  45.9140651  51.2939407  18.9278092
  44.7972486  67.9257547  13.5652286  45.0369084  68.5576071  14.2431305
  43.9541682  67.5745587  13.8517646  45.9126201  50.6182149   2.2334092
  45.0355668  50.4970950   1.8696338  46.3883954  49.8268228   1.9812980
  55.7799194  59.0735217  19.0032547  54.8925973  58.7361139  19.1258946
  56.3497745  58.3418248  19.2401313  37.4328341  55.4059309  12.3275599
  38.1199381  55.0921039  11.7396614  37.2776470  56.3100674  12.0542850
  42.2363064  50.2949506  16.7560622  42.1521252  49.6875175  16.0211032
  41.4145770  50.7858524  16.7570119  49.3100348  63.7336670  15.9693790
  49.2370519  64.5391641  16.4813095  48.8677741  63.9328635  15.1441812
  52.4086777  48.7803069  12.1230817  52.9055477  48.0273031  11.8031888
  51.6373759  48.8167386  11.5574027  60.2616535  54.4843435  13.7649109
  60.2506411  55.3668150  13.3943042  59.3933914  54.1314985  13.5703646
  51.7699031  63.6323504  18.1251949  52.4827003  64.2670968  18.0527851
  51.2789060  63.7287370  17.3091951  53.4916558  57.5374756   9.6969241
  52.5572837  57.6576219   9.5273945  53.6693227  56.6347223   9.4329251
  48.9921746  50.9220452  11.8502502  48.6219534  50.3691492  12.5383408
  49.4880839  50.3178586  11.2977502  56.8789110  53.3792076  10.2319275
  57.3449562  54.2120067  10.1579578  57.3296610  52.9137057  10.9364533
  46.8210945  61.3817947  18.9457520  47.5220404  62.0154430  19.0986914
  46.3506060  61.7232679  18.1853159  54.8505772  45.7472663  14.2710176
  53.9368852  45.9776889  14.4392383  55.2798874  45.8311107  15.1224209
  54.6212231  53.9362554  16.7710070  53.9683681  54.1838462  16.1162523
  54.9992611  53.1226693  16.4372548  50.6699804  54.6782366  23.2576107
  49.9940441  54.5776495  23.9278483  51.4927438  54.5221579  23.7212105
  42.4178663  60.9154302  15.8788623  43.0032100  60.1697990  16.0116527
  42.2203501  61.2258259  16.7625287  45.2717318  63.9505549  10.8951065
  44.6027693  64.4351677  10.4115105  45.1330188  64.1974770  11.8094444
  37.0096318  53.4859902  14.5993066  37.0480417  52.9523493  15.3930184
  36.5036610  52.9595108  13.9804043  49.4122587  65.9849293  17.4933723
  49.9640895  66.1480915  18.2582809  49.7528780  66.5753731  16.8213748
  44.3887080  48.3324443  18.0955608  44.4528406  49.1939274  17.6833006
  44.3254200  47.7198444  17.3627967  43.8639352  50.4047575  21.7428642
  44.4911391  50.0224653  22.3566167  43.0067271  50.1861777  22.1084335
  54.2633461  60.8110551  23.3482378  54.8073365  61.4240509  22.8537333
  53.6820306  61.3690129  23.8649391  40.6404895  52.2124004   7.6746997
  40.9358336  51.3034683   7.6214051  39.7392931  52.1911744   7.3528000
  52.5490974  63.9331269  14.4797406  52.4242113  63.1321008  13.9708351
  53.2070065  64.4277462  13.9911376  44.1699142  50.2880001  13.6574546
  43.4485728  50.9015969  13.5182019  44.9592398  50.8237766  13.5791192
  54.6125882  61.7340289  16.1076956  53.6656218  61.6145640  16.0355282
  54.9608655  60.8462787  16.1903217  46.9725456  47.6234428  19.9315198
  47.4959858  47.8696724  20.6941507  46.7537789  48.4554462  19.5118335
  42.3692737  49.8938102   7.7986322  42.0405443  49.0135481   7.6161428
  42.7232107  49.8385771   8.6862712  51.6172316  61.5293005  12.3081308
  51.4697278  60.6009712  12.4888878  52.4425809  61.5513096  11.8238383
  45.4834560  50.1811072   8.1661800  45.8230632  50.7096993   7.4440408
  45.9306680  50.5191478   8.9420367  55.2206437  62.3521564  13.3946181
  56.1452985  62.1464425  13.2570632  55.0521741  62.1037965  14.3035522
  48.1778001  48.5648123  17.6164868  47.8374821  47.7655936  18.0185548
  47.4717007  48.8649833  17.0441701  48.8294473  45.6497435  16.0692191
  49.6520542  45.1757913  15.9471081  49.0732536  46.4287919  16.5690877
  47.4702707  48.6785694   6.3655093  48.1911070  49.0566946   5.8618810
  46.8468011  49.3974570   6.4690071  51.6133830  49.3830842   7.3013425
  51.8297444  50.2655480   7.0002253  51.1327897  48.9917056   6.5719067
  46.3533051  52.3416556  13.8784170  46.2077632  52.6556859  14.7708451
  45.8758255  52.9601456  13.3255068  48.2129434  49.3319104  13.9265059
  48.1991003  48.4360197  13.5897357  48.9301862  49.3389767  14.5603345
  50.0655565  49.7656444  15.9718187  49.8073343  50.6873515  15.9702517
  49.5340605  49.3686878  16.6618651  40.8278714  54.8821900  16.8171831
  40.2832182  55.6581708  16.9492105  41.7058063  55.2292705  16.6590952
  47.6166330  48.2133484   9.1952629  47.7382241  47.2850130   9.3943517
  47.3268373  48.2272170   8.2830945  50.4857521  45.8988394  12.3319349
  50.5079217  45.9627727  11.3771329  50.9025580  45.0592903  12.5259855
  60.8641145  55.6343654  10.3698572  61.3072291  54.8850979   9.9717695
  59.9867655  55.6253790   9.9872304  41.6144735  54.0091796  19.7101988
  40.8726471  54.1574432  20.2966618  41.2937480  54.2700062  18.8468737
  49.5588398  63.5507775  19.5082378  49.8675524  63.3056921  20.3805077
  50.3563880  63.7554413  19.0201248  49.5809010  65.7045684  11.7387754
  49.1414000  65.2122063  12.4320611  50.3317127  65.1618652  11.4979830
  42.0601349  61.8957225  11.7412382  42.8859369  61.5960997  11.3611026
  41.7095401  61.1264848  12.1902171  47.0282882  61.2483693  13.8110056
  46.4062891  60.5854398  13.5112284  47.6987749  61.2744825  13.1283704
  40.2609954  59.8143552  12.7001316  39.4241862  59.3865726  12.5185317
  40.2333600  60.0075995  13.6372107  47.1007410  49.7265481  23.4042562
  47.1495565  50.6027604  23.0220332  47.6429924  49.1842874  22.8314205
  57.5862255  60.2706605  22.6843699  56.7957799  60.2530743  22.1448198
  57.3495610  60.8094898  23.4392736  57.7060130  57.1199071  19.9976428
  57.7558135  56.9549078  20.9391950  57.5974054  56.2526330  19.6074308
  54.9963893  53.1029999  21.3135734  55.8973756  52.9636464  21.0219732
  55.0711867  53.2684454  22.2533912  49.3306698  50.4796854  20.1588921
  48.4610008  50.7730420  19.8871509  49.5666179  51.0637299  20.8796184
  59.2078327  59.5396012  20.2418449  58.9163136  59.9025993  21.0781910
  58.5950459  58.8263021  20.0631781  60.4074010  57.1048892  12.7621019
  61.2420901  57.5438696  12.9258580  60.5433138  56.6287545  11.9429265
  57.4565515  54.6628627  18.7098507  57.9319637  54.8556273  17.9017359
  56.5331081  54.7187813  18.4641891  44.3449022  55.8252794   8.2929585
  44.0995064  54.9215124   8.4909796  44.5144937  55.8269945   7.3509063
  52.0345732  46.6976471  17.6754341  52.5527676  47.4337498  17.3500830
  51.6800865  47.0040464  18.5101100  43.6144670  51.5581152   5.7915747
  42.9213915  51.6325507   5.1355783  43.3696422  50.7941495   6.3137264
  52.2858326  43.1176753  13.1955238  52.5660080  42.4499942  13.8215664
  53.0708933  43.3105849  12.6829901  56.1567184  51.5394387  16.9426813
  57.1084607  51.6392485  16.9639037  55.9870635  50.7472656  17.4524897
  54.1781564  48.6249970  17.1286214  53.5831496  48.9054983  16.4332702
  53.8931261  49.1143871  17.9002955  58.6355262  54.7600507  16.0569112
  58.6031582  53.8216508  16.2428796  59.2455886  54.8384544  15.3234937
  58.7849751  51.5511550  16.1027396  58.2688799  50.7670007  15.9157324
  59.6689699  51.2230267  16.2673915  56.4460478  45.2952566  12.0623208
  56.2485299  44.9867654  12.9466540  57.0560183  46.0214205  12.1921138
  64.4531812  55.8216514  15.1975149  65.1835201  55.5601802  15.7582853
  63.8438758  55.0845236  15.2377217  62.5347109  53.9624376  15.7949600
  61.8080273  53.8280341  15.1866092  62.1194396  54.2701205  16.6006318
  50.3577286  57.6814306  23.5596973  51.2780295  57.8592905  23.7537020
  50.3226869  56.7370351  23.4076673  39.5759451  52.8752900  12.4850248
  39.2562235  52.0218208  12.1924622  39.0292879  53.0901478  13.2408215
  43.3539358  55.5915341  16.2019755  43.5725368  56.5232448  16.2207788
  43.7665132  55.2323315  16.9874558  50.2743576  46.0983426   8.1895443
  49.4644304  45.7530511   8.5650689  50.9627993  45.7890970   8.7783055
  52.2034124  45.1761473   9.8119740  52.7565163  45.5956926  10.4709763
  52.4404211  44.2497221   9.8542696  48.2267224  51.1648546  25.5922504
  48.1263950  52.1142903  25.5234595  48.0088766  50.8366785  24.7198574
  47.4280295  48.4133471   2.1763181  48.2899459  48.7388370   2.4358998
  47.6130639  47.6264967   1.6636247  39.4447711  56.4955811  14.4543370
  38.7511182  56.0809764  13.9413324  40.1920702  56.5376348  13.8576789
  55.5812931  47.2861998   9.3198404  55.0011600  47.9446802   8.9376456
  55.3148864  46.4639343   8.9085821  54.0316498  46.6867056  11.5219724
  54.5316276  46.7983590  10.7134043  54.6752106  46.3828108  12.1620533
  48.0898494  54.5945685  24.4087565  47.6065575  55.3946045  24.6151454
  48.1759433  54.6053630  23.4555009  41.3584453  56.4274065  12.3309385
  41.3355141  56.5261752  11.3791268  41.6685090  57.2739216  12.6526551
  44.0171831  58.4850220  16.4455999  44.9715085  58.4534162  16.3785931
  43.8184355  58.0240844  17.2606225  44.6071213  57.0551336  19.0126797
  45.4264102  57.5495415  19.0361634  44.8808021  56.1383304  18.9844364
  54.3637809  49.4462088   8.3754752  53.4763664  49.7311739   8.1574947
  54.7791798  49.2855852   7.5282029  57.7152346  49.4708609  12.0909091
  58.4912736  49.9605062  12.3633708  56.9900480  49.8966663  12.5480961
  60.1524904  50.1836229  13.1483032  60.7469395  49.9431964  12.4376340
  60.2251488  49.4643359  13.7756568  42.3722060  64.0269839  13.4626197
  42.2376528  63.2670240  12.8964195  41.9554122  64.7510739  12.9954986
  54.3378833  54.9616624   8.5905042  54.2814035  55.4185176   7.7512675
  54.8907176  54.2007309   8.4127885  58.1483639  50.7506356   9.4155162
  57.8920573  50.3502992  10.2463369  57.5236507  51.4650150   9.2905301
  62.4595977  53.4902429  11.9226453  61.8995535  53.5595619  12.6958015
  61.8539480  53.3143414  11.2025949  45.5291186  64.9239156  13.6744639
  45.4123570  65.8684589  13.5723330  44.7083632  64.6212718  14.0630439
  39.8606127  51.3889470  19.7118994  40.5064991  50.8788424  20.2006219
  39.6523279  52.1258152  20.2862419  52.3859520  58.4570317  25.2111134
  53.2550679  58.6310970  24.8497769  51.9066271  59.2764734  25.0886864
  48.3809738  45.6529514   5.4642890  48.3688408  46.5971354   5.6211161
  49.2733160  45.4699660   5.1702351  46.5545700  65.5767418  16.8900568
  47.4572947  65.6091029  17.2067063  46.3283070  64.6467869  16.9046904
  48.3099302  64.3298405  13.5510647  47.3594933  64.3300267  13.4375019
  48.6131788  63.5831139  13.0346681  52.1961857  42.2472291   9.7188827
  51.4294253  41.6930778   9.8645509  52.6072562  42.3194160  10.5802978
  44.2003618  48.5357087  23.8094008  45.0635080  48.1793892  24.0197332
  43.6269029  48.1970982  24.4969412  61.3361485  71.2721223  20.5104139
  61.3250125  70.8774021  19.6384643  61.4982124  70.5387296  21.1037911
  66.5227111  61.5407204  17.0537204  66.1910436  62.4102615  16.8298419
  65.9272725  61.2243488  17.7331234  60.4896640  67.6791936  22.0765451
  59.7129975  68.2385856  22.0668316  61.1287204  68.1648719  22.5980322
  58.7443013  70.4877390  21.6383418  59.4857697  71.0262434  21.3618242
  58.0379998  71.1143678  21.7954970  60.5729422  67.5679137  17.6089137
  61.4190618  67.9918550  17.7523786  60.5128060  66.9112761  18.3027700
  63.7228868  65.2283505  19.2670310  63.4789800  65.9825566  18.7304586
  63.9988798  65.6068853  20.1017558  57.4804376  67.6417038  22.4398728
  56.8503037  68.3233319  22.6734125  57.3740464  67.5300119  21.4951867
  51.0587052  67.5619324  15.7979643  51.3095090  68.4466334  16.0637219
  51.5946600  67.3823926  15.0254735  56.7585119  61.9437804  24.8023979
  56.3652065  61.3904002  25.4771624  57.5751260  62.2548382  25.1930497
  59.6753080  63.3595683  22.3944236  60.4162794  63.9602836  22.3148698
  59.9071003  62.6173320  21.8362279  54.8194418  68.5452050  20.6722466
  54.7047933  67.6437307  20.9729565  53.9638936  68.7915747  20.3207282
  60.4540548  74.2816720  21.1414876  60.9868885  73.5205008  20.9114184
  59.9254629  73.9890371  21.8839030  63.6210243  59.3876786  16.6708518
  63.2774513  60.2778427  16.5947628  63.9889206  59.1978443  15.8078103
  58.9449669  61.8420170  13.6423933  59.8102666  61.6462979  13.2829822
  59.0127178  61.6130522  14.5693289  57.1225423  65.1319553  15.6554060
  57.7624803  64.9908312  14.9577024  56.2902954  64.8454067  15.2792662
  55.5978965  66.5157635  17.6025872  56.2702018  66.3074997  16.9538520
  54.7708752  66.3179721  17.1631104  61.5004537  63.1419576  19.6191532
  60.8532452  63.8409526  19.5256009  62.2705552  63.5755720  19.9867781
  64.9083335  73.4068428  22.6942086  64.7568841  73.1778980  21.7772169
  64.8988014  74.3639030  22.7073431  56.0006462  69.7900238  18.3628309
  55.8626260  69.0580477  18.9639848  56.9111386  69.7009138  18.0812496
  58.6288763  69.5020198  17.8511988  59.3388381  68.8613390  17.8098607
  58.5858071  69.7533092  18.7738169  57.3417697  66.4885415  19.6707628
  56.8055054  66.0376154  20.3229224  56.7534405  66.6231324  18.9278092
  53.0756818  65.6241423  16.7560622  52.9915007  65.0167093  16.0211032
  52.2539525  66.1150441  16.7570119  61.5093558  70.0074283  23.2576107
  60.8334195  69.9068413  23.9278483  62.3321192  69.8513497  23.7212105
  47.8490072  68.8151820  14.5993066  47.8874172  68.2815411  15.3930184
  47.3430365  68.2887025  13.9804043  55.2280834  63.6616360  18.0955608
  55.2922161  64.5231191  17.6833006  55.1647955  63.0490362  17.3627967
  54.7033107  65.7339493  21.7428642  55.3305146  65.3516570  22.3566167
  53.8461026  65.5153695  22.1084335  57.8119210  62.9526345  19.9315198
  58.3353612  63.1988642  20.6941507  57.5931543  63.7846380  19.5118335
  59.0171755  63.8940040  17.6164868  58.6768576  63.0947853  18.0185548
  58.3110762  64.1941751  17.0441701  59.6688227  60.9789353  16.0692191
  60.4914296  60.5049831  15.9471081  59.9126291  61.7579836  16.5690877
  60.9049319  65.0948362  15.9718187  60.6467097  66.0165432  15.9702517
  60.3734360  64.6978796  16.6618651  51.6672468  70.2113818  16.8171831
  51.1225936  70.9873626  16.9492105  52.5451818  70.5584622  16.6590952
  52.4538490  69.3383714  19.7101988  51.7120226  69.4866349  20.2966618
  52.1331234  69.5991980  18.8468737  57.9401164  65.0557399  23.4042562
  57.9889320  65.9319522  23.0220332  58.4823678  64.5134792  22.8314205
  65.8357647  68.4321917  21.3135734  66.7367510  68.2928382  21.0219732
  65.9105622  68.5976371  22.2533912  60.1700453  65.8088771  20.1588921
  59.3003762  66.1022337  19.8871509  60.4059933  66.3929216  20.8796184
  62.8739486  62.0268388  17.6754341  63.3921430  62.7629415  17.3500830
  62.5194619  62.3332382  18.5101100  65.0175318  63.9541888  17.1286214
  64.4225251  64.2346901  16.4332702  64.7325015  64.4435789  17.9002955
  61.1971040  73.0106224  23.5596973  62.1174050  73.1884823  23.7537020
  61.1620623  72.0662269  23.4076673  59.0660978  66.4940464  25.5922504
  58.9657705  67.4434821  25.5234595  58.8482520  66.1658703  24.7198574
  58.9292248  69.9237603  24.4087565  58.4459330  70.7237963  24.6151454
  59.0153187  69.9345548  23.4555009  55.4464968  72.3843254  19.0126797
  56.2657857  72.8787332  19.0361634  55.7201775  71.4675222  18.9844364
  50.6999882  66.7181388  19.7118994  51.3458746  66.2080342  20.2006219
  50.4917033  67.4550069  20.2862419  63.2253274  73.7862235  25.2111134
  64.0944434  73.9602887  24.8497769  62.7460026  74.6056652  25.0886864
  55.0397373  63.8649005  23.8094008  55.9028835  63.5085809  24.0197332
  54.4662784  63.5262899  24.4969412  39.6573977  17.6199510   7.2349446
  39.6462618  17.2252309   6.3629949  39.8194616  16.8865583   7.8283217
  36.3781238  20.4036622   6.1828630  36.0871104  21.3082253   6.0675296
  37.0138222  20.4453150   6.8972699  41.3371123  20.0898038   3.1778423
  41.0371846  20.9923076   3.0694231  40.9922183  19.8230221   4.0299576
  38.8109133  14.0270223   8.8010758  38.0342467  14.5864144   8.7913623
  39.4499696  14.5127006   9.3225628  37.0655505  16.8355677   8.3628725
  37.8070189  17.3740721   8.0863549  36.3592490  17.4621966   8.5200277
  42.5410845  18.9784817   6.9600887  42.9494201  18.5367228   6.2155519
  41.8188106  18.4037445   7.2135079  43.9979823  18.1200405   4.6692883
  44.2096718  18.7632165   3.9927264  43.9509571  17.2862721   4.2014813
  45.1125651  20.9972360   2.8415240  45.9343094  20.5952547   2.5597922
  45.1088054  20.8940594   3.7931356  38.8782254  20.5456403   4.9975951
  38.9426687  21.0076811   5.8334122  38.1693178  19.9153768   5.1258260
  40.2198748  22.8348077   8.9955273  39.7762602  22.0484456   8.6776177
  40.8815962  23.0227228   8.3299164  34.9785869  24.3643879   3.5215951
  35.5293295  24.2360942   2.7492945  34.1397345  24.6638768   3.1710844
  42.3179986  23.1150877   7.0236674  42.2998462  23.9359758   6.5316943
  43.2399906  22.9904953   7.2486815  38.7753040  20.6295007   7.8660183
  39.3081377  19.8683295   7.6359491  38.2467122  20.3368659   8.6084337
  47.3065169  19.5616272   1.3113626  47.7401676  19.4691561   2.1596680
  48.0196750  19.5373773   0.6733642  41.0393064  23.1618366   2.8446727
  41.0930086  23.7309303   3.6124443  40.1707845  23.3320251   2.4800764
  48.1680719  19.6039973   3.8446512  48.3616609  20.5085783   4.0905787
  48.0681337  19.1447392   4.6785097  43.2295827  19.7546716   9.4187392
  43.0781334  19.5257267   8.5017476  43.2200507  20.7117317   9.4318737
  44.9388034  22.7865838   7.4963874  44.8800580  22.1025058   6.8294457
  45.3407552  23.5284828   7.0444500  33.9578733  29.6027752   0.2897593
  34.1975331  30.2346276   0.9676612  33.1147929  29.2515792   0.5762952
  44.9405441  20.7505422   5.7277854  44.0532220  20.4131344   5.8504253
  45.5103992  20.0188453   5.9646619  38.4706595  25.4106874   2.6939097
  38.3976766  26.2161846   3.2058402  38.0283988  25.6098840   1.8687119
  40.9305278  25.3093708   4.8497256  41.6433250  25.9441173   4.7773157
  40.4395307  25.4057574   4.0337258  35.9817192  23.0588152   5.6702827
  36.6826651  23.6924635   5.8232221  35.5112307  23.4002884   4.9098466
  39.8306051  16.3552570   9.9821414  39.1546688  16.2546700  10.6523789
  40.6533684  16.1991784  10.4457411  38.5728833  27.6619498   4.2179030
  39.1247141  27.8251119   4.9828115  38.9135027  28.2523936   3.5459055
  43.4239708  22.4880755  10.0727684  43.9679612  23.1010714   9.5782639
  42.8426553  23.0460334  10.5894697  41.7097221  25.6101473   1.2042712
  41.5848360  24.8091213   0.6953658  42.3676312  26.1047667   0.7156682
  43.7732129  23.4110494   2.8322262  42.8262465  23.2915845   2.7600589
  44.1214902  22.5232992   2.9148524  44.3812684  24.0291768   0.1191487
  45.3059232  23.8234630  -0.0184062  44.2127988  23.7808170   1.0280829
  38.7194645  25.2277980   6.2327684  39.0281771  24.9827126   7.1050384
  39.5170127  25.4324618   5.7446555  46.7468502  21.9476810   9.4089006
  45.9564046  21.9300948   8.8693505  46.5101857  22.4865103  10.1638042
  46.8666377  18.7969276   6.7221734  46.9164382  18.6319283   7.6637257
  46.7580301  17.9296535   6.3319615  44.1570140  14.7800204   8.0381041
  45.0580002  14.6406669   7.7465039  44.2318114  14.9454659   8.9779218
  48.3684574  21.2166217   6.9663756  48.0769382  21.5796198   7.8027217
  47.7556705  20.5033226   6.7877088  46.6171762  16.3398832   5.4343814
  47.0925884  16.5326478   4.6262665  45.6937328  16.3958018   5.1887197
  47.7961509  16.4370712   2.7814419  47.7637829  15.4986713   2.9674103
  48.4062133  16.5154749   2.0480244  53.6138059  17.4986719   1.9220456
  54.3441447  17.2372007   2.4828159  53.0045004  16.7615441   1.9622524
  51.6953356  15.6394581   2.5194907  50.9686520  15.5050546   1.9111399
  51.2800643  15.9471410   3.3251625  39.5183532  19.3584511  10.2842280
  40.4386542  19.5363110  10.4782327  39.4833115  18.4140556  10.1321979
  37.3873470  12.8418751  12.3167810  37.2870197  13.7913108  12.2479901
  37.1695012  12.5136990  11.4443880  37.2504740  16.2715890  11.1332872
  36.7671822  17.0716250  11.3396761  37.3365679  16.2823835  10.1800316
  41.5465766  20.1340522  11.9356441  42.4156926  20.3081175  11.5743076
  41.0672518  20.9534939  11.8132170  35.7151947  27.2537623   3.6145875
  36.6179193  27.2861234   3.9312369  35.4889317  26.3238074   3.6292210
  53.2058242  31.8429148   1.3401716  53.8436652  31.7235896   0.6365056
  53.0879085  32.7909992   1.3989668  50.0147948  31.7956576   1.2763240
  49.6766460  31.6797641   0.3883775  50.8837717  31.3947741   1.2564246
  45.8734764  33.6492053  -2.7339869  45.3099629  33.5581990  -3.5023581
  45.7587159  32.8291957  -2.2537376  50.4967731  32.9491428   7.2349446
  50.4856372  32.5544226   6.3629949  50.6588371  32.2157501   7.8283217
  43.4199196  35.1443244   0.1044352  44.2120488  34.8034069  -0.3109349
  43.6595846  35.2538219   1.0246505  45.3789950  34.4052158  -7.0238270
  46.1520826  33.8581145  -7.1625394  45.7315349  35.2696407  -6.8123808
  47.2174993  35.7328540   6.1828630  46.9264859  36.6374171   6.0675296
  47.8531977  35.7745067   6.8972699  48.1431199  33.1105388   2.7729989
  48.7394772  32.8861411   2.0586952  48.2006171  32.3690134   3.3755437
  52.7599511  29.5680602  -1.5845076  53.5462600  29.1500025  -1.9354659
  53.0238215  30.4726694  -1.4163428  58.1607938  29.5055835  -0.6812098
  58.8933110  28.9355052  -0.4474268  57.4047293  29.1177436  -0.2405592
  49.7784057  31.9283077  -3.4848755  49.4142265  31.4013698  -2.7735834
  50.6351173  31.5381546  -3.6582270  55.6833358  23.2177409   3.7782511
  55.3516683  24.0872820   3.5543726  55.0878972  22.9013693   4.4576541
  52.1764878  35.4189955   3.1778423  51.8765601  36.3214994   3.0694231
  51.8315937  35.1522139   4.0299576  45.6277359  31.8703752  -0.7884872
  44.7027856  31.7379966  -0.5807180  45.8761772  32.6497971  -0.2914930
  55.5762021  27.9372496   0.8575861  54.6678899  27.8687904   0.5634622
  55.5249617  28.4144440   1.6857686  42.9886170  31.5137026   0.0458917
  43.1178551  31.7671505   0.9598329  42.3083621  32.1064734  -0.2736428
  49.6502887  29.3562141   8.8010758  48.8736221  29.9156061   8.7913623
  50.2893450  29.8418924   9.3225628  57.4423668  26.1388934   2.6353735
  56.7998048  26.4321467   1.9893529  56.9378596  26.0241854   3.4406931
  47.9049260  32.1647594   8.3628725  48.6463944  32.7032638   8.0863549
  47.1986245  32.7913883   8.5200277  53.3804599  34.3076735   6.9600887
  53.7887955  33.8659145   6.2155519  52.6581861  33.7329362   7.2135079
  49.7335669  29.2449342   4.3334443  50.5796864  29.6688755   4.4769092
  49.6734307  28.5882966   5.0273007  53.7033414  34.8677926   0.7153175
  53.0742276  35.0323640   0.0129243  53.3159076  35.2819535   1.4864139
  57.5822646  35.8032363  -1.9302461  56.8973684  36.1831265  -2.4805428
  57.6666495  36.4127690  -1.1970513  52.8835115  26.9053710   5.9915617
  52.6396046  27.6595771   5.4549893  53.1595045  27.2839058   6.8262864
  54.8373577  33.4492322   4.6692883  55.0490473  34.0924082   3.9927264
  54.7903326  32.6154639   4.2014813  52.4399806  26.0610143   1.5729455
  51.5784285  26.3591397   1.8646192  52.4662241  26.2780542   0.6410487
  49.2561376  34.6052334  -2.0196739  49.7199721  34.8840037  -2.8092117
  48.9918174  33.7035778  -2.2023649  46.1485457  34.1523815   0.9183024
  46.7186814  34.5811084   0.2800508  46.7393569  33.8706400   1.6167209
  48.1930262  30.7275486  -5.2107174  48.8954305  31.1796530  -4.7433248
  47.8610890  30.0859305  -4.5827281  46.6410623  29.3187243   9.1644035
  46.0109284  30.0003524   9.3979432  46.5346711  29.2070324   8.2197173
  41.9355596  28.9859039   0.0909959  41.1454650  29.2416567  -0.3849930
  42.4266843  29.8007377   0.1962000  55.9519405  36.3264278   2.8415240
  56.7736849  35.9244465   2.5597922  55.9481808  36.2232512   3.7931356
  43.8870341  29.3503618  -2.9506564  43.0901504  29.4622312  -2.4323068
  43.6595933  29.6890270  -3.8165674  49.7176009  35.8748321   4.9975951
  49.7820441  36.3368728   5.8334122  49.0086933  35.2445686   5.1258260
  40.2193299  29.2389529   2.5224950  40.4701337  30.1236539   2.7882526
  40.7552847  29.0594131   1.7500042  45.9191366  23.6208009  11.5269286
  45.5258312  23.0674207  12.2016930  46.7357506  23.9318587  11.9175804
  42.8853424  35.0591867  -4.5617144  43.3977944  35.8535117  -4.4111579
  43.5376137  34.3618157  -4.6283543  44.6948308  38.1757623  -2.4794391
  44.8714937  39.0975588  -2.6673407  45.4905142  37.8616042  -2.0500011
  48.8359327  25.0365888   9.1189543  49.5769040  25.6373041   9.0394005
  49.0677250  24.2943525   8.5607585  43.9800665  30.2222255   7.3967772
  43.8654180  29.3207512   7.6974871  43.1245183  30.4685952   7.0452589
  51.0592503  38.1639995   8.9955273  50.6156357  37.3776374   8.6776177
  51.7209716  38.3519146   8.3299164  45.8179624  39.6935797   3.5215951
  46.3687049  39.5652860   2.7492945  44.9791100  39.9930686   3.1710844
  53.1573741  38.4442795   7.0236674  53.1392216  39.2651676   6.5316943
  54.0793661  38.3196870   7.2486815  49.6146795  35.9586925   7.8660183
  50.1475132  35.1975213   7.6359491  49.0860876  35.6660576   8.6084337
  52.7816490  21.0646991   3.3953824  52.4380759  21.9548632   3.3192935
  53.1495453  20.8748648   2.5323409  40.8502341  33.3880521  -3.7857574
  41.6877563  33.7977529  -4.0023866  41.0280608  32.4479963  -3.8157380
  50.3313884  25.9005302  -3.0388502  49.4755480  25.5112153  -3.2182863
  50.7440835  25.9797263  -3.8988717  51.8613030  23.4351646   1.3603058
  51.3577826  23.3981781   0.5470863  52.1543637  24.3444388   1.4199714
  48.1055916  23.5190375   0.3669239  48.9708913  23.3233184   0.0075129
  48.1733425  23.2900727   1.2938596  52.5353076  28.9282694  -6.2713959
  52.2303211  29.2428843  -5.4203816  53.4883518  29.0064114  -6.2286626
  50.9799508  35.0872917  -4.6221005  50.4520869  34.3525677  -4.9347768
  50.4787010  35.8647593  -4.8681037  55.9592354  33.2821938   0.4946041
  55.3016028  33.9721199   0.5826170  56.7632753  33.6718369   0.8380027
  54.7697812  31.6366310  -1.4550017  55.2829694  32.2696302  -0.9528308
  55.4199036  31.0367506  -1.8206657  51.2478643  29.1115766   0.7908323
  50.3301205  29.3330713   0.6330011  51.6638787  29.1862076  -0.0679969
  52.0313691  30.5107181  -4.0788997  52.7785510  31.0228579  -4.3881875
  52.3005281  30.1891234  -3.2184603  54.4792528  27.5464298  -2.0970207
  53.7415285  27.0341684  -1.7659965  54.7319302  27.1064679  -2.9086930
  48.8525235  30.6194343  -0.9952247  48.9073845  29.6668179  -1.0709770
  48.0416437  30.7753782  -0.5110949  46.7917595  29.2371403  -3.2361868
  45.9785461  29.5365573  -2.8296676  47.2876589  28.8427091  -2.5187386
  48.9426173  39.2329159  -1.3027603  48.9002352  39.4590006  -2.2319071
  49.8588872  38.9992534  -1.1541802  52.3891807  29.7013227   5.5953026
  52.7441195  29.9284700   6.4547492  53.0363938  30.0331604   4.9730281
  46.2831670  26.8089758   2.3799367  46.9231049  26.6678517   1.6822330
  45.4509201  26.5224271   2.0037969  58.1458923  34.8908190   1.3113626
  58.5795430  34.7983479   2.1596680  58.8590504  34.8665690   0.6733642
  47.0591974  36.1092188  -1.5065641  47.8532572  35.6142509  -1.7083066
  46.3483666  35.5810052  -1.8697935  51.8786818  38.4910284   2.8446727
  51.9323841  39.0601220   3.6124443  51.0101600  38.6612169   2.4800764
  44.7585212  28.1927840   4.3271178  45.4308265  27.9845202   3.6783827
  43.9314998  27.9949926   3.8876411  59.0074473  34.9331891   3.8446512
  59.2010363  35.8377701   4.0905787  58.9075091  34.4739310   4.6785097
  50.6610784  24.8189781   6.3436839  50.0138699  25.5179731   6.2501316
  51.4311799  25.2525925   6.7113087  54.0689582  35.0838633   9.4187392
  53.9175088  34.8549185   8.5017476  54.0594261  36.0409235   9.4318737
  50.8374918  32.6570546   4.4033659  51.7666978  32.8081706   4.2302626
  50.4165948  32.7454567   3.5482305  49.6363250  36.6821210   2.1732196
  49.4974336  36.3139995   3.0458135  48.8477846  37.1968850   2.0016154
  51.1868465  36.0602813  -0.4378966  50.8518298  36.0203583   0.4578684
  50.6872411  35.3947529  -0.9108556  45.1612709  31.4670443   5.0873615
  45.0232507  30.7350682   5.6885154  46.0717632  31.3779343   4.8057803
  47.7895010  31.1790403   4.5757295  48.4994628  30.5383595   4.5343913
  47.7464318  31.4303297   5.4983476  55.7781788  38.1157756   7.4963874
  55.7194335  37.4316976   6.8294457  56.1801307  38.8576746   7.0444500
  46.5023944  28.1655620   6.3952935  45.9661301  27.7146359   7.0474531
  45.9140652  28.3001529   5.6523399  44.7972487  44.9319670   0.2897593
  45.0369085  45.5638194   0.9676612  43.9541684  44.5807710   0.5762952
  55.7799196  36.0797340   5.7277854  54.8925974  35.7423262   5.8504253
  56.3497747  35.3480371   5.9646619  37.4328343  32.4121432  -0.9479095
  38.1199383  32.0983162  -1.5358079  37.2776471  33.3162796  -1.2211843
  42.2363065  27.3011628   3.4805929  42.1521254  26.6937298   2.7456339
  41.4145771  27.7920646   3.4815425  49.3100349  40.7398792   2.6939097
  49.2370521  41.5453764   3.2058402  48.8677742  40.9390758   1.8687119
  52.4086779  25.7865192  -1.1523876  52.9055478  25.0335154  -1.4722806
  51.6373760  25.8229508  -1.7180667  60.2616536  31.4905557   0.4894416
  60.2506412  32.3730273   0.1188349  59.3933916  31.1377108   0.2948953
  51.7699033  40.6385626   4.8497256  52.4827005  41.2733091   4.7773157
  51.2789061  40.7349492   4.0337258  53.4916559  34.5436879  -3.5785453
  52.5572838  34.6638341  -3.7480748  53.6693228  33.6409346  -3.8425443
  48.9921748  27.9282575  -1.4252191  48.6219535  27.3753615  -0.7371286
  49.4880840  27.3240708  -1.9777191  56.8789111  30.3854198  -3.0435418
  57.3449563  31.2182190  -3.1175116  57.3296611  29.9199180  -2.3390160
  46.8210946  38.3880070   5.6702827  47.5220406  39.0216553   5.8232221
  46.3506061  38.7294801   4.9098466  54.8505774  22.7534785   0.9955483
  53.9368853  22.9839012   1.1637690  55.2798875  22.8373229   1.8469515
  54.6212232  30.9424677   3.4955377  53.9683682  31.1900585   2.8407830
  54.9992612  30.1288815   3.1617854  50.6699805  31.6844488   9.9821414
  49.9940442  31.5838617  10.6523789  51.4927439  31.5283702  10.4457411
  42.4178664  37.9216425   2.6033929  43.0032101  37.1760113   2.7361833
  42.2203503  38.2320381   3.4870593  45.2717319  40.9567672  -2.3803628
  44.6027695  41.4413800  -2.8639588  45.1330189  41.2036893  -1.4660250
  37.0096319  30.4922025   1.3238372  37.0480418  29.9585616   2.1175491
  36.5036612  29.9657230   0.7049350  49.4122588  42.9911416   4.2179030
  49.9640896  43.1543037   4.9828115  49.7528781  43.5815853   3.5459055
  44.3887081  25.3386565   4.8200915  44.4528408  26.2001396   4.4078312
  44.3254201  24.7260567   4.0873273  43.8639354  27.4109698   8.4673949
  44.4911393  27.0286775   9.0811473  43.0067273  27.1923900   8.8329641
  54.2633462  37.8172673  10.0727684  54.8073366  38.4302631   9.5782639
  53.6820307  38.3752252  10.5894697  52.5490975  40.9393391   1.2042712
  52.4242115  40.1383131   0.6953658  53.2070066  41.4339584   0.7156682
  44.1699143  27.2942124   0.3819852  43.4485729  27.9078091   0.2427326
  44.9592399  27.8299888   0.3036498  54.6125884  38.7402411   2.8322262
  53.6656219  38.6207762   2.7600589  54.9608657  37.8524909   2.9148524
  46.9725457  24.6296550   6.6560504  47.4959859  24.8758847   7.4186813
  46.7537790  25.4616585   6.2363642  51.6172317  38.5355127  -0.9673386
  51.4697279  37.6071835  -0.7865815  52.4425810  38.5575218  -1.4516310
  55.2206439  39.3583686   0.1191487  56.1452986  39.1526547  -0.0184062
  55.0521742  39.1100087   1.0280829  48.1778002  25.5710245   4.3410175
  47.8374822  24.7718058   4.7430855  47.4717008  25.8711956   3.7687008
  48.8294474  22.6559558   2.7937498  49.6520543  22.1820036   2.6716388
  49.0732537  23.4350041   3.2936184  46.3533053  29.3478678   0.6029476
  46.2077633  29.6618981   1.4953758  45.8758256  29.9663579   0.0500375
  48.2129435  26.3381226   0.6510366  48.1991004  25.4422320   0.3142664
  48.9301864  26.3451890   1.2848652  50.0655566  26.7718566   2.6963493
  49.8073344  27.6935637   2.6947824  49.5340607  26.3749001   3.3863957
  40.8278715  31.8884023   3.5417138  40.2832183  32.6643831   3.6737412
  41.7058065  32.2354827   3.3836259  50.4857522  22.9050517  -0.9435344
  50.5079219  22.9689850  -1.8983365  50.9025581  22.0655026  -0.7494838
  41.6144737  31.0153919   6.4347294  40.8726473  31.1636554   7.0211925
  41.2937481  31.2762185   5.5714044  49.5588399  40.5569897   6.2327684
  49.8675526  40.3119044   7.1050384  50.3563881  40.7616536   5.7446555
  49.5809011  42.7107807  -1.5366939  49.1414002  42.2184186  -0.8434082
  50.3317128  42.1680774  -1.7774864  42.0601350  38.9019348  -1.5342311
  42.8859370  38.6023120  -1.9143667  41.7095402  38.1326970  -1.0852522
  47.0282883  38.2545816   0.5355363  46.4062893  37.5916521   0.2357590
  47.6987750  38.2806948  -0.1470990  40.2609955  36.8205674  -0.5753377
  39.4241864  36.3927848  -0.7569376  40.2333601  37.0138117   0.3617414
  47.1007411  26.7327604  10.1287869  47.1495566  27.6089727   9.7465638
  47.6429925  26.1904997   9.5559512  57.5862257  37.2768727   9.4089006
  56.7957800  37.2592866   8.8693505  57.3495611  37.8157021  10.1638042
  57.7060132  34.1261194   6.7221734  57.7558137  33.9611201   7.6637257
  57.5974055  33.2588453   6.3319615  54.9963894  30.1092122   8.0381041
  55.8973757  29.9698586   7.7465039  55.0711869  30.2746576   8.9779218
  49.3306699  27.4858976   6.8834227  48.4610009  27.7792542   6.6116816
  49.5666180  28.0699421   7.6041491  59.2078329  36.5458135   6.9663756
  58.9163137  36.9088116   7.8027217  58.5950460  35.8325143   6.7877088
  60.4074011  34.1111015  -0.5133674  61.2420902  34.5500819  -0.3496114
  60.5433140  33.6349668  -1.3325428  57.4565517  31.6690750   5.4343814
  57.9319638  31.8618396   4.6262665  56.5331082  31.7249936   5.1887197
  44.3449023  32.8314917  -4.9825108  44.0995065  31.9277247  -4.7844898
  44.5144938  32.8332067  -5.9245630  52.0345733  23.7038593   4.3999648
  52.5527677  24.4399620   4.0746136  51.6800866  24.0102587   5.2346407
  52.2858327  20.1238876  -0.0799456  52.5660081  19.4562065   0.5460971
  53.0708934  20.3167971  -0.5924792  56.1567186  28.5456510   3.6672119
  57.1084609  28.6454607   3.6884343  55.9870636  27.7534778   4.1770204
  54.1781565  25.6312093   3.8531520  53.5831497  25.9117106   3.1578009
  53.8931262  26.1205994   4.6248261  58.6355264  31.7662629   2.7814419
  58.6031584  30.8278630   2.9674103  59.2455887  31.8446666   2.0480244
  58.7849752  28.5573673   2.8272702  58.2688801  27.7732130   2.6402631
  59.6689701  28.2292390   2.9919222  64.4531813  32.8278636   1.9220456
  65.1835202  32.5663924   2.4828159  63.8438759  32.0907358   1.9622524
  62.5347111  30.9686499   2.5194907  61.8080274  30.8342464   1.9111399
  62.1194397  31.2763328   3.3251625  50.3577287  34.6876429  10.2842280
  51.2780296  34.8655028  10.4782327  50.3226870  33.7432474  10.1321979
  39.5759452  29.8815022  -0.7904445  39.2562236  29.0280330  -1.0830071
  39.0292880  30.0963600  -0.0346478  43.3539359  32.5977463   2.9265061
  43.5725369  33.5294571   2.9453095  43.7665133  32.2385438   3.7119865
  48.2267225  28.1710669  12.3167810  48.1263952  29.1205026  12.2479901
  48.0088767  27.8428908  11.4443880  39.4447712  33.5017934   1.1788676
  38.7511183  33.0871887   0.6658631  40.1920703  33.5438470   0.5822095
  54.0316499  23.6929178  -1.7534969  54.5316277  23.8045713  -2.5620650
  54.6752107  23.3890231  -1.1134161  48.0898495  31.6007808  11.1332872
  47.6065577  32.4008168  11.3396761  48.1759434  31.6115753  10.1800316
  41.3584454  33.4336188  -0.9445309  41.3355143  33.5323875  -1.8963426
  41.6685091  34.2801338  -0.6228143  44.0171832  35.4912343   3.1701306
  44.9715086  35.4596285   3.1031237  43.8184356  35.0302966   3.9851531
  44.6071214  34.0613459   5.7372103  45.4264103  34.5557537   5.7606941
  44.8808022  33.1445427   5.7089671  57.7152347  26.4770732  -1.1845602
  58.4912737  26.9667184  -0.9120985  56.9900481  26.9028786  -0.7273732
  42.3722061  41.0331962   0.1871503  42.2376529  40.2732363  -0.3790499
  41.9554123  41.7572862  -0.2799708  54.3378834  31.9678747  -4.6849651
  54.2814036  32.4247298  -5.5242019  54.8907177  31.2069431  -4.8626808
  45.5291187  41.9301279   0.3989946  45.4123571  42.8746712   0.2968636
  44.7083633  41.6274841   0.7875745  39.8606129  28.3951592   6.4364300
  40.5064992  27.8850546   6.9251525  39.6523280  29.1320274   7.0107726
  52.3859521  35.4632440  11.9356441  53.2550681  35.6373092  11.5743076
  51.9066272  36.2826857  11.8132170  46.5545701  42.5829541   3.6145875
  47.4572948  42.6153151   3.9312369  46.3283071  41.6529992   3.6292210
  48.3099303  41.3360527   0.2755953  47.3594934  41.3362389   0.1620325
  48.6131789  40.5893262  -0.2408012  44.2003620  25.5419210  10.5339315
  45.0635081  25.1856014  10.7442639  43.6269030  25.2033104  11.2214719
  61.3361486  48.2783346   7.2349446  61.3250127  47.8836144   6.3629949
  61.4982125  47.5449418   7.8283217  66.5227113  38.5469327   3.7782511
  66.1910437  39.4164738   3.5543726  65.9272726  38.2305611   4.4576541
  60.4896642  44.6854059   8.8010758  59.7129976  45.2447979   8.7913623
  61.1287205  45.1710842   9.3225628  58.7443014  47.4939512   8.3628725
  59.4857698  48.0324556   8.0863549  58.0379999  48.1205801   8.5200277
  60.5729424  44.5741259   4.3334443  61.4190619  44.9980673   4.4769092
  60.5128061  43.9174884   5.0273007  63.7228869  42.2345628   5.9915617
  63.4789801  42.9887688   5.4549893  63.9988800  42.6130975   6.8262864
  57.4804378  44.6479160   9.1644035  56.8503038  45.3295441   9.3979432
  57.3740466  44.5362242   8.2197173  51.0587053  44.5681447   2.5224950
  51.3095092  45.4528457   2.7882526  51.5946602  44.3886048   1.7500042
  56.7585120  38.9499926  11.5269286  56.3652066  38.3966125  12.2016930
  57.5751261  39.2610505  11.9175804  59.6753081  40.3657805   9.1189543
  60.4162795  40.9664958   9.0394005  59.9071004  39.6235443   8.5607585
  54.8194419  45.5514173   7.3967772  54.7047935  44.6499430   7.6974871
  53.9638937  45.7977869   7.0452589  60.4540549  51.2878842   7.8660183
  60.9868886  50.5267130   7.6359491  59.9254631  50.9952494   8.6084337
  63.6210244  36.3938908   3.3953824  63.2774514  37.2840550   3.3192935
  63.9889207  36.2040566   2.5323409  58.9449671  38.8482293   0.3669239
  59.8102667  38.6525102   0.0075129  59.0127180  38.6192645   1.2938596
  57.1225424  42.1381676   2.3799367  57.7624804  41.9970435   1.6822330
  56.2902955  41.8516189   2.0037969  55.5978966  43.5219758   4.3271178
  56.2702020  43.3137120   3.6783827  54.7708753  43.3241844   3.8876411
  61.5004538  40.1481699   6.3436839  60.8532453  40.8471648   6.2501316
  62.2705554  40.5817843   6.7113087  64.9083336  50.4130551   9.4187392
  64.7568843  50.1841103   8.5017476  64.8988016  51.3701152   9.4318737
  56.0006464  46.7962361   5.0873615  55.8626261  46.0642600   5.6885154
  56.9111387  46.7071261   4.8057803  58.6288764  46.5082320   4.5757295
  59.3388383  45.8675512   4.5343913  58.5858072  46.7595215   5.4983476
  57.3417698  43.4947538   6.3952935  56.8055055  43.0438277   7.0474531
  56.7534407  43.6293447   5.6523399  53.0756819  42.6303546   3.4805929
  52.9915008  42.0229215   2.7456339  52.2539526  43.1212564   3.4815425
  61.5093560  47.0136406   9.9821414  60.8334197  46.9130535  10.6523789
  62.3321193  46.8575620  10.4457411  47.8490073  45.8213943   1.3238372
  47.8874173  45.2877533   2.1175491  47.3430366  45.2949148   0.7049350
  55.2280836  40.6678483   4.8200915  55.2922162  41.5293314   4.4078312
  55.1647956  40.0552485   4.0873273  54.7033108  42.7401616   8.4673949
  55.3305147  42.3578693   9.0811473  53.8461027  42.5215818   8.8329641
  57.8119211  39.9588468   6.6560504  58.3353613  40.2050764   7.4186813
  57.5931545  40.7908503   6.2363642  59.0171757  40.9002163   4.3410175
  58.6768577  40.1009976   4.7430855  58.3110763  41.2003874   3.7687008
  59.6688228  37.9851475   2.7937498  60.4914298  37.5111954   2.6716388
  59.9126292  38.7641959   3.2936184  60.9049321  42.1010484   2.6963493
  60.6467099  43.0227555   2.6947824  60.3734361  41.7040919   3.3863957
  51.6672469  47.2175940   3.5417138  51.1225937  47.9935748   3.6737412
  52.5451819  47.5646745   3.3836259  52.4538491  46.3445837   6.4347294
  51.7120227  46.4928472   7.0211925  52.1331235  46.6054102   5.5714044
  57.9401165  42.0619522  10.1287869  57.9889321  42.9381644   9.7465638
  58.4823680  41.5196915   9.5559512  65.8357649  45.4384039   8.0381041
  66.7367511  45.2990504   7.7465039  65.9105623  45.6038494   8.9779218
  60.1700454  42.8150894   6.8834227  59.3003763  43.1084460   6.6116816
  60.4059934  43.3991339   7.6041491  62.8739488  39.0330511   4.3999648
  63.3921432  39.7691538   4.0746136  62.5194621  39.3394504   5.2346407
  65.0175320  40.9604011   3.8531520  64.4225252  41.2409023   3.1578009
  64.7325016  41.4497912   4.6248261  61.1971041  50.0168346  10.2842280
  62.1174051  50.1946945  10.4782327  61.1620624  49.0724392  10.1321979
  59.0660979  43.5002587  12.3167810  58.9657706  44.4496944  12.2479901
  58.8482521  43.1720826  11.4443880  58.9292249  46.9299726  11.1332872
  58.4459331  47.7300086  11.3396761  59.0153188  46.9407670  10.1800316
  55.4464969  49.3905376   5.7372103  56.2657858  49.8849455   5.7606941
  55.7201777  48.4737344   5.7089671  50.6999883  43.7243510   6.4364300
  51.3458747  43.2142464   6.9251525  50.4917034  44.4612192   7.0107726
  63.2253275  50.7924358  11.9356441  64.0944435  50.9665010  11.5743076
  62.7460027  51.6118774  11.8132170  55.0397374  40.8711127  10.5339315
  55.9028836  40.5147932  10.7442639  54.4662785  40.5325022  11.2214719
   3.9639162  67.8285632  39.1451979   4.6964333  67.2584849  39.3789809
   3.2078517  67.4407233  39.5858485   1.4864582  61.5407206  43.6046588
   1.1547907  62.4102617  43.3807803   0.8910195  61.2243490  44.2840618
   1.3793245  66.2602292  40.6839938   0.4710123  66.1917701  40.3898699
   1.3280841  66.7374237  41.5121763   3.2454892  64.4618731  42.4617812
   2.6029272  64.7551264  41.8157606   2.7409820  64.3471651  43.2671008
   0.3835379  58.6470347  38.3235639   0.6894256  57.7867710  38.0361554
   1.1087984  59.2387967  38.1234633   1.9598410  66.8686307  43.4936196
   2.9115832  66.9684404  43.5148420   1.7901860  66.0764575  44.0034281
   4.5880976  66.8803470  42.6536779   4.0720024  66.0961926  42.4666708
   5.4720924  66.5522186  42.8183299   2.2491703  60.6244485  38.6132592
   2.0516524  60.3159574  39.4975924   2.8591408  61.3506124  38.7430522
   8.3378334  69.2916296  42.3458984   7.6111498  69.1572261  41.7375476
   7.9225621  69.5993124  43.1515702   1.3844156  62.6153917  35.8707788
   0.8042825  63.2738721  35.4885840   1.1180089  61.7931262  35.4595205
   3.5183571  64.8000529  38.6418475   4.2943961  65.2896981  38.9143092
   2.7931705  65.2258583  39.0990345   5.9556129  65.5128148  39.6992416
   6.5500620  65.2723884  38.9885724   6.0282713  64.7935279  40.3265952
   3.9514864  66.0798276  35.9664545   3.6951798  65.6794911  36.7972753
   3.3267732  66.7942069  35.8414685   8.2627202  68.8194349  38.4735837
   7.7026760  68.8887538  39.2467399   7.6570705  68.6435333  37.7535333
   3.9639163  44.8347755  25.8697286   4.6964335  44.2646972  26.1035115
   3.2078519  44.4469355  26.3103791   1.4864583  38.5469329  30.3291894
   1.1547908  39.4164740  30.1053109   0.8910197  38.2305613  31.0085925
   1.3793246  43.2664415  27.4085244   0.4710124  43.1979823  27.1144005
   1.3280842  43.7436360  28.2367070   3.2454893  41.4680853  29.1863118
   2.6029273  41.7613387  28.5402913   2.7409821  41.3533774  29.9916315
   0.8995057  45.2144027  19.8748978   1.8112913  45.4471413  19.6996675
   0.3904704  45.7981071  19.3124056   3.3853871  51.1324283  24.6206923
   2.7004909  51.5123184  24.0703956   3.4697720  51.7419610  25.3538871
   0.6404802  48.7784242  31.2202266   0.8521698  49.4216002  30.5436647
   0.5934551  47.9446558  30.7524196   1.7550630  51.6556197  29.3924624
   2.5768074  51.2536385  29.1107305   1.7513033  51.5524431  30.3440739
   9.8456623  47.9994946  25.7409595   9.0920332  47.4302344  25.5853600
   9.9804165  47.9657610  26.6880230   3.5232272  49.1379876  20.3888817
   2.7461715  48.7991035  19.9443979   4.2023753  49.1432499  19.7143782
   1.7623579  48.6113857  27.0455425   1.1047253  49.3013118  27.1335553
   2.5663978  49.0010289  27.3889411   0.5729038  46.9658230  25.0959366
   1.0860919  47.5988222  25.5981076   1.2230261  46.3659425  24.7302726
   1.3390834  51.9464231  23.2238509   0.8853161  51.1055141  23.2803699
   0.7084800  52.5825630  23.5613289   0.3835381  35.6532469  25.0480946
   0.6894257  34.7929833  24.7606861   1.1087985  36.2450089  24.8479940
   3.9220769  48.1523582  22.8511738   3.7838667  48.3425178  21.9232928
   3.5656988  48.9142965  23.3079790   3.9490149  50.2200109  27.8623010
   4.3826655  50.1275398  28.7106064   4.6621729  50.1957610  27.2243026
   4.8105698  50.2623810  30.3955895   5.0041588  51.1669621  30.6415170
   4.7106316  49.8031229  31.2294480   1.5813013  53.4449675  34.0473258
   1.5225560  52.7608895  33.3803841   1.9832532  54.1868665  33.5953884
   1.5830421  51.4089259  32.2787238   0.6957199  51.0715181  32.4013636
   2.1528972  50.6772290  32.5156003   6.0647761  46.8197477  27.0403799
   6.0537637  47.7022192  26.6697732   5.1965141  46.4669027  26.8458336
   2.6820336  45.7146118  23.5073965   3.1480788  46.5474109  23.4334268
   3.1327836  45.2491099  24.2119224   1.0237664  54.6875606  26.6700871
   1.9484211  54.4818467  26.5325322   0.8552967  54.4392007  27.5790212
   0.8132980  55.2061273  22.0262962   0.9869858  54.6407696  21.2736815
   1.3061871  56.0062168  21.8442452   6.6672371  47.9697696  23.6453262
   7.1103517  47.2205021  23.2472385   5.7898881  47.9607832  23.2626994
   1.8008152  54.5228037  19.1259861   2.4959057  55.1434730  19.3447175
   2.1431303  53.6723389  19.4012239   3.6999576  51.9727743  20.6547191
   4.2250900  52.3115016  19.9296511   3.6121928  51.0374758  20.4710326
   3.3893482  52.6060647  35.9598389   2.5989025  52.5884785  35.4202889
   3.1526836  53.1448940  36.7147426   3.5091357  49.4553113  33.2731118
   3.5589362  49.2903120  34.2146641   3.4005280  48.5880372  32.8828999
   0.7995119  45.4384041  34.5890425   1.7004982  45.2990506  34.2974422
   0.8743094  45.6038496  35.5288602   5.0109554  51.8750055  33.5173139
   4.7194362  52.2380035  34.3536600   4.3981685  51.1617063  33.3386472
   6.2105236  49.4402934  26.0375710   7.0452127  49.8792738  26.2013270
   6.3464365  48.9641588  25.2183955   3.2596742  46.9982669  31.9853197
   3.7350863  47.1910315  31.1772049   2.3362307  47.0541855  31.7396581
   1.9598411  43.8748429  30.2181503   2.9115834  43.9746527  30.2393727
   1.7901861  43.0826698  30.7279587   1.7408297  54.2292810  16.1247484
   1.6621929  53.8952673  17.0183242   2.5617964  54.7214578  16.1238956
   4.4386489  47.0954549  29.3323803   4.4062809  46.1570550  29.5183486
   5.0487112  47.1738586  28.5989628   4.5880977  43.8865592  29.3782086
   4.0720026  43.1024049  29.1912015   5.4720926  43.5584309  29.5428605
   2.2491704  37.6306608  25.3377899   2.0516525  37.3221696  26.2221230
   2.8591410  38.3568247  25.4675828  10.2563038  48.1570556  28.4729839
  10.9866427  47.8955844  29.0337543   9.6469984  47.4199278  28.5131907
   8.3378336  46.2978418  29.0704291   7.6111499  46.1634383  28.4620782
   7.9225622  46.6055247  29.8761009   1.3844158  39.6216040  22.5953094
   0.8042827  40.2800844  22.2131147   1.1180090  38.7993385  22.1840512
   3.5183572  41.8062651  25.3663782   4.2943962  42.2959104  25.6388398
   2.7931706  42.2320706  25.8235651   5.9556130  42.5190271  26.4237722
   6.5500621  42.2786007  25.7131030   6.0282714  41.7997401  27.0511259
   3.9514865  43.0860398  22.6909852   3.6951800  42.6857034  23.5218060
   3.3267733  43.8004192  22.5659991   8.2627203  45.8256471  25.1981143
   7.7026761  45.8949661  25.9712706   7.6570707  45.6497456  24.4780640
   1.2198947  51.9843334  17.7955922   2.0544551  51.5524533  17.6133397
   1.0583289  51.8125348  18.7232817   9.8483222  62.5012985  27.8911099
  10.4861632  62.3819733  27.1874439   9.7304065  63.4493829  27.9499051
   6.6572928  62.4540413  27.8272624   6.3191439  62.3381478  26.9393159
   7.5262696  62.0531579  27.8073630   2.5159744  64.3075890  23.8169515
   1.9524609  64.2165827  23.0485803   2.4012139  63.4875794  24.2972007
   7.1392711  63.6075265  33.7858829   7.1281352  63.2128063  32.9139333
   7.3013350  62.8741338  34.3792601   8.0959302  67.9746858  19.1283980
   7.4447282  68.5600938  18.7417994   8.8903665  68.5053052  19.1879017
   3.8599972  66.3912377  32.7338013   3.5689838  67.2958008  32.6184680
   4.4956956  66.4328905  33.4482083   4.7856179  63.7689225  29.3239373
   5.3819751  63.5445248  28.6096336   4.8431150  63.0273971  29.9264821
   9.4024490  60.2264439  24.9664307  10.1887579  59.8083862  24.6154724
   9.6663194  61.1310531  25.1345956   9.5734568  65.6637289  19.6652964
   8.9380400  65.7371916  20.3773869   9.2431974  66.2530888  18.9872043
  14.8032917  60.1639672  25.8697286  15.5358089  59.5938889  26.1035115
  14.0472273  59.7761273  26.3103791   4.0777496  63.1256767  19.3613939
   3.9613754  62.4501670  20.0295023   4.1879756  62.6389141  18.5446092
   6.4209037  62.5866914  23.0660628   6.0567244  62.0597535  23.7773550
   7.2776153  62.1965383  22.8927114  12.3258338  53.8761246  30.3291894
  11.9941662  54.7456657  30.1053109  11.7303951  53.5597530  31.0085925
   6.0614524  57.6156814  18.0621977   6.2288926  58.4837050  18.4292448
   5.8711693  57.7784095  17.1383266   8.8189857  66.0773792  29.7287807
   8.5190580  66.9798831  29.6203614   8.4740917  65.8105976  30.5808960
   2.2702339  62.5287589  25.7624511   1.3452835  62.3963803  25.9702203
   2.5186752  63.3081809  26.2594454  12.2187001  58.5956333  27.4085244
  11.3103878  58.5271741  27.1144005  12.1674597  59.0728278  28.2367070
   6.0403745  60.0714471  19.0468644   5.9203370  60.5171522  19.8854124
   5.3456333  60.4199789  18.4882182   6.2927867  60.0145978  35.3520142
   5.5161201  60.5739898  35.3423006   6.9318430  60.5002761  35.8735012
  14.0848647  56.7972771  29.1863118  13.4423028  57.0905304  28.5402913
  13.5803576  56.6825691  29.9916315  11.7388811  60.5435944  19.8748978
  12.6506667  60.7763331  19.6996675  11.2298458  61.1272988  19.3124056
   4.5474239  62.8231432  34.9138109   5.2888923  63.3616476  34.6372932
   3.8411225  63.4497720  35.0709660  10.0229579  64.9660572  33.5110270
  10.4312935  64.5242983  32.7664903   9.3006840  64.3913200  33.7644463
   6.3760649  59.9033179  30.8843827   7.2221844  60.3272592  31.0278476
   6.3159286  59.2466803  31.5782390  10.3458393  65.5261763  27.2662559
   9.7167256  65.6907477  26.5638627   9.9584055  65.9403372  28.0373523
  14.2247625  66.4616201  24.6206923  13.5398663  66.8415102  24.0703956
  14.3091475  67.0711527  25.3538871   9.5260094  57.5637547  32.5425001
   9.2821026  58.3179608  32.0059276   9.8020025  57.9422895  33.3772248
  11.4798557  64.1076160  31.2202266  11.6915452  64.7507919  30.5436647
  11.4328305  63.2738476  30.7524196   9.0824786  56.7193980  28.1238838
   8.2209265  57.0175234  28.4155576   9.1087220  56.9364379  27.1919871
   5.8986355  65.2636171  24.5312644   6.3624701  65.5423874  23.7417267
   5.6343153  64.3619615  24.3485735   2.7910436  64.8107652  27.4692407
   3.3611793  65.2394921  26.8309892   3.3818548  64.5290237  28.1676593
   4.8355241  61.3859323  21.3402209   5.5379285  61.8380367  21.8076136
   4.5035870  60.7443142  21.9682102   3.2835603  59.9771080  35.7153419
   2.6534263  60.6587361  35.9488815   3.1771691  59.8654161  34.7706557
  12.5944385  66.9848115  29.3924624  13.4161829  66.5828302  29.1107305
  12.5906788  66.8816349  30.3440739   6.3600988  66.5332158  31.5485334
   6.4245421  66.9952566  32.3843506   5.6511912  65.9029523  31.6767644
  20.6850378  63.3286863  25.7409595  19.9314086  62.7594262  25.5853600
  20.8197919  63.2949528  26.6880230   6.0749006  68.2000266  21.4164314
   5.9394681  69.0451802  21.8449162   6.6158818  68.4019543  20.6530248
   2.5616346  54.2791846  38.0778670   2.1683291  53.7258044  38.7526314
   3.3782486  54.5902424  38.4685187   5.4784307  55.6949725  35.6698926
   6.2194020  56.2956878  35.5903389   5.7102229  54.9527363  35.1116969
   7.7017482  68.8223832  35.5464657   7.2581336  68.0360211  35.2285561
   8.3634696  69.0102983  34.8808547   9.7998720  69.1026632  33.5746058
   9.7817196  69.9235513  33.0826327  10.7218640  68.9780707  33.7996199
   6.2571774  66.6170762  34.4169566   6.7900111  65.8559050  34.1868874
   5.7285856  66.3244414  35.1593721   9.4241469  51.7230828  29.9463208
   9.0805739  52.6132469  29.8702319   9.7920432  51.5332485  29.0832793
   9.3891752  61.7139439  18.4535643   8.8738376  62.4844043  18.6924030
   9.1169061  61.0404575  19.0768705   6.9738863  56.5589140  23.5120881
   6.1180460  56.1695990  23.3326520   7.3865815  56.6381100  22.6520667
   8.5038010  54.0935483  27.9112441   8.0002805  54.0565618  27.0980246
   8.7968617  55.0028226  27.9709098   4.7480896  54.1774213  26.9178623
   5.6133892  53.9817021  26.5584512   4.8158405  53.9484564  27.8447980
  14.3626026  64.4671793  20.3888817  13.5855469  64.1282953  19.9443979
  15.0417507  64.4724417  19.7143782   9.1778055  59.5866531  20.2795424
   8.8728191  59.9012680  21.1305567  10.1308497  59.6647951  20.3222757
   7.6224487  65.7456754  21.9288378   7.0945849  65.0109514  21.6161616
   7.1211990  66.5231431  21.6828347  12.6017333  63.9405775  27.0455425
  11.9441008  64.6305036  27.1335553  13.4057732  64.3302207  27.3889411
   2.3543215  56.4076420  24.2894990   2.9286967  56.1851602  23.5568183
   2.9414197  56.4765115  25.0423591  11.4122792  62.2950147  25.0959366
  11.9254674  62.9280139  25.5981076  12.0624016  61.6951343  24.7302726
   2.6812802  58.4380882  18.3090875   1.8450114  58.7755568  18.6300150
   2.5417572  58.3029861  17.3718012   4.6565883  53.2817669  23.0170059
   4.0030295  52.9666687  22.3926674   4.6146357  52.6593410  23.7429882
   7.8903623  59.7699603  27.3417707   6.9726184  59.9914550  27.1839395
   8.3063767  59.8445913  26.4829414   8.6738671  61.1691019  22.4720387
   9.4210490  61.6812416  22.1627509   8.9430260  60.8475071  23.3324781
   6.9465321  63.6649559  19.4547341   6.0376540  63.3808592  19.5519811
   6.9760405  64.0848638  18.5950648  12.1784588  67.2756149  23.2238509
  11.7246915  66.4347059  23.2803699  11.5478555  67.9117547  23.5613289
  11.1217508  58.2048135  24.4539176  10.3840265  57.6925521  24.7849419
  11.3744281  57.7648516  23.6422453  10.6217527  69.1132646  24.1588327
  10.9140502  69.6737703  23.4400693  11.1316148  69.4061207  24.9141486
  11.2229135  50.9824387  25.0480946  11.5288012  50.1221750  24.7606861
  11.9481740  51.5742007  24.8479940   5.4950215  61.2778180  25.5557137
   5.5498825  60.3252016  25.4799613   4.6841417  61.4337619  26.0398435
   3.4342575  59.8955240  23.3147516   2.6210440  60.1949410  23.7212708
   3.9301569  59.5010928  24.0321998   9.0316786  60.3597064  32.1462409
   9.3866174  60.5868537  33.0056875   9.6788918  60.6915441  31.5239665
  14.7614523  63.4815500  22.8511738  14.6232422  63.6717096  21.9232928
  14.4050742  64.2434883  23.3079790   2.9256650  57.4673595  28.9308751
   3.5656029  57.3262354  28.2331714   2.0934180  57.1808109  28.5547353
  14.7883903  65.5492027  27.8623010  15.2220410  65.4567316  28.7106064
  15.5015484  65.5249528  27.2243026   3.7016953  66.7676026  25.0443743
   4.4957552  66.2726346  24.8426318   2.9908646  66.2393889  24.6811449
   8.5211798  69.1494121  29.3956111   8.5748820  69.7185057  30.1633827
   7.6526579  69.3196006  29.0310148   1.4010191  58.8511677  30.8780562
   2.0733245  58.6429039  30.2293211   0.5739978  58.6533763  30.4385794
  15.6499453  65.5915728  30.3955895  15.8435343  66.4961538  30.6415170
  15.5500071  65.1323147  31.2294480   7.3035763  55.4773618  32.8946223
   6.6563678  56.1763568  32.8010699   8.0736779  55.9109762  33.2622471
  10.7114561  65.7422470  35.9696776  10.5600068  65.5133022  35.0526860
  10.7019241  66.6993072  35.9828121   7.4799898  63.3154383  30.9543042
   8.4091958  63.4665543  30.7812010   7.0590928  63.4038404  30.0991689
   6.2788229  67.3405048  28.7241580   6.1399315  66.9723832  29.5967518
   5.4902826  67.8552687  28.5525538   7.8293445  66.7186650  26.1130418
   7.4943277  66.6787420  27.0088068   7.3297390  66.0531366  25.6400828
   1.8037689  62.1254280  31.6382999   1.6657486  61.3934519  32.2394538
   2.7142612  62.0363180  31.3567187  10.7652636  64.0642685  16.3867478
  10.1481807  63.3389513  16.2900530  10.2969125  64.8252045  16.0434552
   4.4319989  61.8374240  31.1266679   5.1419608  61.1967432  31.0853297
   4.3889297  62.0887134  32.0492859  12.4206768  68.7741593  34.0473258
  12.3619314  68.0900813  33.3803841  12.8226286  69.5160583  33.5953884
   3.1448923  58.8239458  32.9462318   2.6086280  58.3730196  33.5983914
   2.5565632  58.9585366  32.2032782  12.4224175  66.7381177  32.2787238
  11.5350954  66.4007099  32.4013636  12.9922726  66.0064208  32.5156003
   9.0511758  56.4449029  25.3985508   9.5480458  55.6918991  25.0786578
   8.2798740  56.4813345  24.8328717  16.9041516  62.1489394  27.0403799
  16.8931392  63.0314110  26.6697732  16.0358895  61.7960945  26.8458336
  10.1341539  65.2020716  22.9723931   9.1997818  65.3222178  22.8028635
  10.3118207  64.2993183  22.7083941   5.6346727  58.5866412  25.1257192
   5.2644515  58.0337452  25.8138098   6.1305819  57.9824545  24.5732192
  13.5214090  61.0438035  23.5073965  13.9874543  61.8766027  23.4334268
  13.9721591  60.5783017  24.2119224  11.5890321  67.3881857  20.5060117
  11.8650165  67.2738451  21.4153991  10.7194820  66.9899341  20.4672290
  11.4930753  53.4118622  27.5464867  10.5793833  53.6422849  27.7147073
  11.9223855  53.4957066  28.3978899  11.2637212  61.6008514  30.0464761
  10.6108662  61.8484422  29.3917213  11.6417591  60.7872652  29.7127238
   7.3124785  62.3428325  36.5330798   6.6365422  62.2422455  37.2033173
   8.1352418  62.1867539  36.9966795   1.0312061  55.9970403  31.3710298
   1.0953387  56.8585233  30.9587696   0.9679181  55.3844404  30.6382657
  10.9058442  68.4756510  36.6237068  11.4498346  69.0886469  36.1292023
  10.3245287  69.0336089  37.1404081  11.2550863  69.3986248  29.3831646
  10.3081199  69.2791600  29.3109973  11.6033636  68.5108746  29.4657907
   3.6150437  55.2880387  33.2069888   4.1384838  55.5342684  33.9696197
   3.3962770  56.1200422  32.7873025   8.2597296  69.1938965  25.5835998
   8.1122259  68.2655672  25.7643568   9.0850790  69.2159055  25.0993073
   2.1259541  57.8457032  21.4416490   2.4655613  58.3742953  20.7195099
   2.5731661  58.1837438  22.2175057  11.8631418  70.0167523  26.6700871
  12.7877966  69.8110385  26.5325322  11.6946722  69.7683924  27.5790212
   4.8202982  56.2294082  30.8919558   4.4799802  55.4301895  31.2940238
   4.1141988  56.5295793  30.3196392   5.4719453  53.3143395  29.3446881
   6.2945523  52.8403873  29.2225772   5.7157517  54.0933879  29.8445568
   4.1127688  56.3431653  19.6409783   4.8336050  56.7212906  19.1373500
   3.4892992  57.0620530  19.7444761   8.2558811  57.0476802  20.5768115
   8.4722425  57.9301440  20.2756944   7.7752878  56.6563016  19.8473757
   2.9958032  60.0062515  27.1538860   2.8502613  60.3202818  28.0463141
   2.5183236  60.6247416  26.6009759   4.8554415  56.9965063  27.2019750
   4.8415984  56.1006157  26.8652047   5.5726843  57.0035727  27.8358036
   6.7080546  57.4302404  29.2472877   6.4498324  58.3519474  29.2457207
   6.1765586  57.0332838  29.9373341  11.6526734  70.5353191  22.0262962
  11.8263612  69.9699613  21.2736815  12.1455626  71.3354086  21.8442452
   4.2591311  55.8779444  22.4707320   4.3807222  54.9496090  22.6698207
   3.9693353  55.8918130  21.5585635   7.1282501  53.5634354  25.6074040
   7.1504198  53.6273687  24.6526019   7.5450560  52.7238863  25.8014546
  17.5066126  63.2989614  23.6453262  17.9497272  62.5496939  23.2472385
  16.6292636  63.2899750  23.2626994  12.6401907  69.8519955  19.1259861
  13.3352812  70.4726648  19.3447175  12.9825057  69.0015306  19.4012239
  14.5393330  67.3019661  20.6547191  15.0644654  67.6406933  19.9296511
  14.4515683  66.3666676  20.4710326   3.7432390  57.3911441  36.6797252
   3.7920546  58.2673564  36.2975022   4.2854905  56.8488834  36.1068895
  14.2287236  67.9352564  35.9598389  13.4382780  67.9176703  35.4202889
  13.9920591  68.4740858  36.7147426  14.3485111  64.7845031  33.2731118
  14.3983116  64.6195038  34.2146641  14.2399035  63.9172290  32.8828999
  11.6388874  60.7675959  34.5890425  12.5398736  60.6282424  34.2974422
  11.7136848  60.9330414  35.5288602   5.9731679  58.1442813  33.4343611
   5.1034988  58.4376380  33.1626199   6.2091159  58.7283258  34.1550875
  15.8503308  67.2041972  33.5173139  15.5588116  67.5671953  34.3536600
  15.2375439  66.4908980  33.3386472  17.0498990  64.7694852  26.0375710
  17.8845882  65.2084656  26.2013270  17.1858119  64.2933505  25.2183955
  14.0990496  62.3274587  31.9853197  14.5744618  62.5202233  31.1772049
  13.1756062  62.3833773  31.7396581   8.6770713  54.3622430  30.9509031
   9.1952657  55.0983457  30.6255520   8.3225846  54.6686424  31.7855790
   8.9283307  50.7822713  26.4709928   9.2085061  50.1145902  27.0970354
   9.7133914  50.9751809  25.9584592  12.7992165  59.2040347  30.2181503
  13.7509588  59.3038445  30.2393727  12.6295616  58.4118615  30.7279587
  10.8206545  56.2895930  30.4040904  10.2256477  56.5700943  29.7087393
  10.5356241  56.7789831  31.1757645  12.5802052  69.5584727  16.1247484
  12.5015683  69.2244591  17.0183242  13.4011719  70.0506495  16.1238956
  15.2780243  62.4246467  29.3323803  15.2456563  61.4862467  29.5183486
  15.8880867  62.5030503  28.5989628   7.1163574  61.2942520  15.3751007
   8.0622679  61.1648728  15.4439425   6.7377819  60.5557181  15.8520435
  15.4274732  59.2157510  29.3782086  14.9113780  58.4315967  29.1912015
  16.3114680  58.8876227  29.5428605  13.0885458  52.9598526  25.3377899
  12.8910280  52.6513614  26.2221230  13.6985164  53.6860165  25.4675828
  21.0956793  63.4862473  28.4729839  21.8260181  63.2247762  29.0337543
  20.4863738  62.7491195  28.5131907  19.1772090  61.6270336  29.0704291
  18.4505254  61.4926301  28.4620782  18.7619377  61.9347165  29.8761009
   7.0002266  65.3460266  36.8351664   7.9205276  65.5238865  37.0291710
   6.9651849  64.4016311  36.6831363   6.9168557  53.7629386  21.4650133
   6.1069285  53.4176471  21.8405379   7.6052974  53.4536929  22.0537745
   8.8459105  52.8407432  23.0874430   9.3990144  53.2602886  23.7464453
   9.0829191  51.9143181  23.1297386   4.8692204  58.8294506  38.8677194
   4.7688931  59.7788863  38.7989285   4.6513746  58.5012745  37.9953264
   4.0705276  56.0779431  15.4517871   4.9324440  56.4034330  15.7113688
   4.2555620  55.2910927  14.9390937  12.2237912  54.9507958  22.5953094
  11.6436581  55.6092762  22.2131147  11.9573845  54.1285302  22.1840512
  10.6741479  54.3513015  24.7974414  11.1741257  54.4629550  23.9888733
  11.3177086  54.0474068  25.4375223   4.7323474  62.2591645  37.6842255
   4.2490556  63.0592005  37.8906144   4.8184413  62.2699590  36.7309699
   0.6596812  66.1496180  29.7210689   1.6140065  66.1180122  29.6540621
   0.4609335  65.6886803  30.5360915   1.2496194  64.7197296  32.2881487
   2.0689083  65.2141374  32.3116324   1.5233002  63.8029264  32.2599054
  11.0062790  57.1108048  21.6509442  10.1188645  57.3957699  21.4329637
  11.4216779  56.9501811  20.8036719  14.3577326  57.1354569  25.3663782
  15.1337716  57.6251021  25.6388398  13.6325461  57.5612623  25.8235651
  16.7949885  57.8482188  26.4237722  17.3894376  57.6077924  25.7131030
  16.8676469  57.1289319  27.0511259  10.9803814  62.6262584  21.8659733
  10.9239015  63.0831135  21.0267365  11.5332156  61.8653269  21.6882575
  14.7908620  58.4152316  22.6909852  14.5345554  58.0148951  23.5218060
  14.1661488  59.1296110  22.5659991  19.1020958  61.1548389  25.1981143
  18.5420516  61.2241578  25.9712706  18.4964461  60.9789374  24.4780640
  12.0592701  67.3135252  17.7955922  12.8938305  66.8816450  17.6133397
  11.8977044  67.1417266  18.7232817  11.7138593  63.8167365  19.1612262
  11.6587397  63.6511637  18.2200706  11.0884649  64.5243398  19.3174451
   9.0284500  66.1216277  38.4865825   9.8975660  66.2956929  38.1252459
   8.5491252  66.9410694  38.3641554   5.0234719  53.3175474  18.7397580
   5.0113389  54.2617314  18.8965851   5.9158141  53.1345620  18.4457041
   8.8386838  49.9118251  22.9943517   8.0719234  49.3576738  23.1400199
   9.2497543  49.9840120  23.8557669  25.6426672  75.4931590  25.8697286
  26.3751844  74.9230807  26.1035115  24.8866027  75.1053191  26.3103791
  23.1652092  69.2053164  30.3291894  22.8335417  70.0748575  30.1053109
  22.5697706  68.8889448  31.0085925  23.0580755  73.9248250  27.4085244
  22.1497633  73.8563659  27.1144005  23.0068351  74.4020195  28.2367070
  24.9242402  72.1264689  29.1863118  24.2816782  72.4197222  28.5402913
  24.4197330  72.0117609  29.9916315  20.3653849  72.8929465  32.5425001
  20.1214780  73.6471525  32.0059276  20.6413779  73.2714812  33.3772248
  19.9218540  72.0485898  28.1238838  19.0603019  72.3467151  28.4155576
  19.9480975  72.2656297  27.1919871  13.4010100  69.6083763  38.0778670
  13.0077046  69.0549962  38.7526314  14.2176240  69.9194342  38.4685187
  16.3178061  71.0241642  35.6698926  17.0587774  71.6248796  35.5903389
  16.5495984  70.2819280  35.1116969  20.2635224  67.0522745  29.9463208
  19.9199493  67.9424387  29.8702319  20.6314187  66.8624403  29.0832793
  17.8132618  71.8881057  23.5120881  16.9574214  71.4987908  23.3326520
  18.2259569  71.9673018  22.6520667  19.3431764  69.4227401  27.9112441
  18.8396560  69.3857536  27.0980246  19.6362371  70.3320143  27.9709098
  15.5874650  69.5066130  26.9178623  16.4527647  69.3108939  26.5584512
  15.6552159  69.2776482  27.8447980  13.1936969  71.7368338  24.2894990
  13.7680721  71.5143520  23.5568183  13.7807952  71.8057033  25.0423591
  15.4959637  68.6109587  23.0170059  14.8424049  68.2958604  22.3926674
  15.4540111  67.9885328  23.7429882  21.9611262  73.5340053  24.4539176
  21.2234019  73.0217439  24.7849419  22.2138036  73.0940434  23.6422453
  22.0622890  66.3116305  25.0480946  22.3681766  65.4513668  24.7606861
  22.7875494  66.9033925  24.8479940  18.1429518  70.8065536  32.8946223
  17.4957433  71.5055486  32.8010699  18.9130533  71.2401680  33.2622471
  19.8905513  71.7740946  25.3985508  20.3874212  71.0210909  25.0786578
  19.1192494  71.8105263  24.8328717  22.3324508  68.7410540  27.5464867
  21.4187587  68.9714767  27.7147073  22.7617609  68.8248984  28.3978899
  14.4544191  70.6172305  33.2069888  14.9778593  70.8634601  33.9696197
  14.2356524  71.4492340  32.7873025  15.6596736  71.5586000  30.8919558
  15.3193556  70.7593813  31.2940238  14.9535742  71.8587711  30.3196392
  16.3113208  68.6435312  29.3446881  17.1339277  68.1695791  29.2225772
  16.5551271  69.4225796  29.8445568  19.0952565  72.3768720  20.5768115
  19.3116180  73.2593358  20.2756944  18.6146632  71.9854933  19.8473757
  15.6948169  72.3256981  27.2019750  15.6809738  71.4298074  26.8652047
  16.4120598  72.3327645  27.8358036  15.0985065  71.2071361  22.4707320
  15.2200977  70.2788008  22.6698207  14.8087108  71.2210047  21.5585635
  17.9676256  68.8926272  25.6074040  17.9897953  68.9565605  24.6526019
  18.3844315  68.0530780  25.8014546  19.5164467  69.6914348  30.9509031
  20.0346411  70.4275375  30.6255520  19.1619600  69.9978341  31.7855790
  19.7677061  66.1114631  26.4709928  20.0478815  65.4437820  27.0970354
  20.5527668  66.3043726  25.9584592  23.6385920  74.5332265  30.2181503
  24.5903343  74.6330362  30.2393727  23.4689370  73.7410533  30.7279587
  21.6600299  71.6187848  30.4040904  21.0650231  71.8992861  29.7087393
  21.3749996  72.1081749  31.1757645  26.2668486  74.5449428  29.3782086
  25.7507535  73.7607884  29.1912015  27.1508435  74.2168144  29.5428605
  23.9279213  68.2890443  25.3377899  23.7304034  67.9805531  26.2221230
  24.5378919  69.0152082  25.4675828  30.0165845  76.9562254  29.0704291
  29.2899008  76.8218219  28.4620782  29.6013131  77.2639082  29.8761009
  17.7562311  69.0921303  21.4650133  16.9463040  68.7468388  21.8405379
  18.4446728  68.7828847  22.0537745  19.6852860  68.1699350  23.0874430
  20.2383898  68.5894804  23.7464453  19.9222946  67.2435098  23.1297386
  14.9099030  71.4071349  15.4517871  15.7718194  71.7326247  15.7113688
  15.0949374  70.6202845  14.9390937  23.0631667  70.2799875  22.5953094
  22.4830336  70.9384679  22.2131147  22.7967599  69.4577220  22.1840512
  21.5135233  69.6804933  24.7974414  22.0135011  69.7921468  23.9888733
  22.1570841  69.3765986  25.4375223  21.8456545  72.4399966  21.6509442
  20.9582400  72.7249616  21.4329637  22.2610534  72.2793729  20.8036719
  25.1971081  72.4646487  25.3663782  25.9731471  72.9542939  25.6388398
  24.4719215  72.8904541  25.8235651  27.6343639  73.1774106  26.4237722
  28.2288130  72.9369842  25.7131030  27.7070223  72.4581236  27.0511259
  25.6302374  73.7444234  22.6909852  25.3739309  73.3440869  23.5218060
  25.0055242  74.4588027  22.5659991  29.9414712  76.4840307  25.1981143
  29.3814270  76.5533496  25.9712706  29.3358216  76.3081291  24.4780640
  15.8628473  68.6467392  18.7397580  15.8507143  69.5909232  18.8965851
  16.7551895  68.4637537  18.4457041  19.6780593  65.2410169  22.9943517
  18.9112988  64.6868655  23.1400199  20.0891298  65.3132037  23.8557669
   0.6404804  25.7846365  17.9447573   0.8521699  26.4278124  17.2681954
   0.5934552  24.9508681  17.4769503   1.7550632  28.6618320  16.1169930
   2.5768075  28.2598507  15.8352612   1.7513034  28.5586554  17.0686046
   3.9490150  27.2262232  14.5868317   4.3826656  27.1337521  15.4351371
   4.6621730  27.2019732  13.9488333   4.8105699  27.2685933  17.1201202
   5.0041589  28.1731743  17.3660477   4.7106317  26.8093352  17.9539787
   1.5813015  30.4511798  20.7718565   1.5225561  29.7671018  20.1049148
   1.9832533  31.1930788  20.3199191   1.5830422  28.4151382  19.0032544
   0.6957201  28.0777304  19.1258943   2.1528973  27.6834413  19.2401310
   1.0237665  31.6937728  13.3946178   1.9484213  31.4880590  13.2570629
   0.8552968  31.4454129  14.3035519   3.3893483  29.6122769  22.6843696
   2.5989027  29.5946908  22.1448195   3.1526837  30.1511063  23.4392733
   3.5091358  26.4615236  19.9976425   3.5589363  26.2965243  20.9391947
   3.4005281  25.5942495  19.6074305   0.7995120  22.4446164  21.3135731
   1.7004983  22.3052628  21.0219729   0.8743095  22.6100618  22.2533909
   5.0109555  28.8812177  20.2418446   4.7194363  29.2442158  21.0781907
   4.3981686  28.1679185  20.0631778   3.2596743  24.0044792  18.7098504
   3.7350865  24.1972438  17.9017355   2.3362308  24.0603978  18.4641888
   4.4386490  24.1016672  16.0569109   4.4062810  23.1632672  16.2428793
   5.0487113  24.1800708  15.3234934  10.2563040  25.1632678  15.1975146
  10.9866428  24.9017966  15.7582849   9.6469985  24.4261400  15.2377214
   8.3378337  23.3040541  15.7949597   7.6111500  23.1696506  15.1866089
   7.9225624  23.6117370  16.6006315   9.8483223  39.5075108  14.6156406
  10.4861633  39.3881855  13.9119746   9.7304066  40.4555952  14.6744358
   6.6572929  39.4602536  14.5517931   6.3191441  39.3443601  13.6638465
   7.5262697  39.0593701  14.5318937   2.5159745  41.3138012  10.5414821
   1.9524610  41.2227949   9.7731109   2.4012140  40.4937917  11.0217314
   7.1392712  40.6137388  20.5104136   7.1281353  40.2190186  19.6384640
   7.3013352  39.8803460  21.1037908   8.0959304  44.9808980   5.8529286
   7.4447283  45.5663061   5.4663300   8.8903666  45.5115175   5.9124324
   3.8599973  43.3974500  19.4583320   3.5689839  44.3020130  19.3429986
   4.4956958  43.4391027  20.1727390   4.7856180  40.7751348  16.0484680
   5.3819752  40.5507370  15.3341643   4.8431152  40.0336094  16.6510128
   9.4024491  37.2326562  11.6909614  10.1887581  36.8145985  11.3400031
   9.6663196  38.1372654  11.8591262   9.5734569  42.6699412   6.3898271
   8.9380402  42.7434039   7.1019175   9.2431975  43.2593011   5.7117350
  14.8032919  37.1701795  12.5942592  15.5358090  36.6001012  12.8280422
  14.0472274  36.7823395  13.0349098   6.4209038  39.5929036   9.7905935
   6.0567245  39.0659657  10.5018856   7.2776154  39.2027506   9.6172420
  12.3258339  30.8823369  17.0537201  11.9941664  31.7518780  16.8298416
  11.7303952  30.5659653  17.7331231   8.8189858  43.0835915  16.4533114
   8.5190582  43.9860954  16.3448921   8.4740918  42.8168098  17.3054267
   2.2702340  39.5349712  12.4869818   1.3452836  39.4025926  12.6947510
   2.5186753  40.3143931  12.9839761  12.2187002  35.6018455  14.1330551
  11.3103880  35.5333864  13.8389312  12.1674598  36.0790400  14.9612377
   6.2927868  37.0208101  22.0765448   5.5161202  37.5802021  22.0668313
   6.9318431  37.5064884  22.5980318  14.0848649  33.8034894  15.9108425
  13.4423029  34.0967427  15.2648220  13.5803577  33.6887814  16.7161622
  11.7388812  37.5498067   6.5994284  12.6506668  37.7825454   6.4241982
  11.2298459  38.1335111   6.0369363   4.5474240  39.8293554  21.6383415
   5.2888925  40.3678598  21.3618239   3.8411226  40.4559843  21.7954967
  10.0229580  41.9722695  20.2355577  10.4312936  41.5305105  19.4910209
   9.3006841  41.3975322  20.4889770   6.3760650  36.9095301  17.6089134
   7.2221845  37.3334715  17.7523783   6.3159288  36.2528926  18.3027697
  10.3458395  42.5323885  13.9907866   9.7167257  42.6969599  13.2883934
   9.9584057  42.9465495  14.7618830  14.2247626  43.4678323  11.3452229
  13.5398665  43.8477225  10.7949263  14.3091476  44.0773650  12.0784177
   9.5260095  34.5699670  19.2670307   9.2821027  35.3241730  18.7304583
   9.8020026  34.9485017  20.1017554  11.4798558  41.1138282  17.9447573
  11.6915453  41.7570042  17.2681954  11.4328306  40.2800599  17.4769503
   9.0824787  33.7256103  14.8484145   8.2209266  34.0237356  15.1400883
   9.1087222  33.9426502  13.9165178   5.8986356  42.2698293  11.2557951
   6.3624702  42.5485996  10.4662573   5.6343155  41.3681738  11.0731041
   2.7910438  41.8169775  14.1937714   3.3611795  42.2457043  13.5555199
   3.3818549  41.5352360  14.8921900   4.8355243  38.3921446   8.0647516
   5.5379286  38.8442489   8.5321442   4.5035871  37.7505265   8.6927409
   3.2835604  36.9833202  22.4398725   2.6534265  37.6649483  22.6734122
   3.1771692  36.8716284  21.4951864  12.5944386  43.9910238  16.1169930
  13.4161830  43.5890425  15.8352612  12.5906789  43.8878472  17.0686046
   6.3600989  43.5394281  18.2730641   6.4245422  44.0014688  19.1088813
   5.6511913  42.9091646  18.4012951  20.6850379  40.3348986  12.4654902
  19.9314087  39.7656384  12.3098906  20.8197920  40.3011651  13.4125536
   6.0749007  45.2062388   8.1409621   5.9394682  46.0513924   8.5694469
   6.6158820  45.4081666   7.3775555   2.5616347  31.2853968  24.8023976
   2.1683292  30.7320167  25.4771621   3.3782487  31.5964547  25.1930494
   5.4784308  32.7011847  22.3944233   6.2194021  33.3019000  22.3148695
   5.7102231  31.9589485  21.8362275   7.7017484  45.8285955  22.2709963
   7.2581338  45.0422333  21.9530868   8.3634697  46.0165105  21.6053854
   2.4604605  47.3581756  16.7970642   3.0112030  47.2298820  16.0247636
   1.6216081  47.6576646  16.4465535   9.7998722  46.1088755  20.2991364
   9.7817197  46.9297636  19.8071634  10.7218642  45.9842830  20.5241506
   6.2571776  43.6232884  21.1414873   6.7900113  42.8621172  20.9114181
   5.7285857  43.3306536  21.8839027   9.4241471  28.7292950  16.6708515
   9.0805740  29.6194592  16.5947625   9.7920433  28.5394608  15.8078100
   9.3891753  38.7201561   5.1780950   8.8738377  39.4906166   5.4169337
   9.1169062  38.0466698   5.8014011   6.9738864  33.5651262  10.2366188
   6.1180461  33.1758113  10.0571827   7.3865816  33.6443223   9.3765974
   8.5038011  31.0997605  14.6357748   8.0002807  31.0627741  13.8225553
   8.7968618  32.0090348  14.6954405   4.7480897  31.1836335  13.6423930
   5.6133894  30.9879144  13.2829819   4.8158406  30.9546687  14.5693286
  14.3626028  41.4733916   7.1134123  13.5855470  41.1345076   6.6689285
  15.0417509  41.4786539   6.4389088   9.1778057  36.5928653   7.0040731
   8.8728192  36.9074803   7.8550874  10.1308499  36.6710073   7.0468064
   7.6224488  42.7518877   8.6533685   7.0945850  42.0171636   8.3406922
   7.1211991  43.5293553   8.4073653  12.6017334  40.9467897  13.7700731
  11.9441009  41.6367159  13.8580860  13.4057734  41.3364329  14.1134718
  11.4122793  39.3012270  11.8204673  11.9254675  39.9342262  12.3226383
  12.0624017  38.7013465  11.4548033   7.8903624  36.7761726  14.0663013
   6.9726186  36.9976673  13.9084702   8.3063768  36.8508036  13.2074721
   8.6738672  38.1753141   9.1965694   9.4210491  38.6874538   8.8872816
   8.9430261  37.8537194  10.0570087   6.9465322  40.6711682   6.1792648
   6.0376541  40.3870715   6.2765118   6.9760406  41.0910760   5.3195955
  12.1784589  44.2818271   9.9483816  11.7246917  43.4409181  10.0049006
  11.5478556  44.9179670  10.2858596  11.1217509  35.2110257  11.1784483
  10.3840266  34.6987644  11.5094726  11.3744283  34.7710639  10.3667760
  10.6217529  46.1194768  10.8833634  10.9140503  46.6799825  10.1645999
  11.1316149  46.4123329  11.6386793  11.2229136  27.9886509  11.7726252
  11.5288013  27.1283873  11.4852167  11.9481741  28.5804130  11.5725246
   5.4950216  38.2840303  12.2802443   5.5498826  37.3314139  12.2044920
   4.6841418  38.4399742  12.7643742   3.4342576  36.9017362  10.0392822
   2.6210442  37.2011533  10.4458014   3.9301570  36.5073051  10.7567304
   5.5851154  46.8975119  11.9727087   5.5427333  47.1235966  11.0435619
   6.5013853  46.6638494  12.1212888   9.0316788  37.3659187  18.8707716
   9.3866175  37.5930660  19.7302182   9.6788919  37.6977564  18.2484971
  14.7614525  40.4877623   9.5757045  14.6232423  40.6779219   8.6478234
  14.4050743  41.2497005  10.0325096   2.9256651  34.4735718  15.6554057
   3.5656030  34.3324477  14.9577020   2.0934181  34.1870231  15.2792659
  14.7883904  42.5554150  14.5868317  15.2220411  42.4629439  15.4351371
  15.5015485  42.5311650  13.9488333   3.7016955  43.7738148  11.7689050
   4.4957553  43.2788468  11.5671625   2.9908647  43.2456011  11.4056755
   8.5211799  46.1556244  16.1201417   8.5748821  46.7247180  16.8879133
   7.6526581  46.3258129  15.7555454   1.4010193  35.8573800  17.6025868
   2.0733246  35.6491162  16.9538517   0.5739979  35.6595886  17.1631101
  15.6499454  42.5977850  17.1201202  15.8435344  43.5023661  17.3660477
  15.5500072  42.1385269  17.9539787   7.3035765  32.4835741  19.6191529
   6.6563680  33.1825691  19.5256006   8.0736780  32.9171885  19.9867778
  10.7114562  42.7484593  22.6942083  10.5600069  42.5195145  21.7772166
  10.7019242  43.7055194  22.7073428   7.4799899  40.3216506  17.6788349
   8.4091959  40.4727665  17.5057316   7.0590929  40.4100527  16.8236996
   6.2788231  44.3467170  15.4486887   6.1399316  43.9785955  16.3212825
   5.4902827  44.8614810  15.2770845   7.8293446  43.7248773  12.8375725
   7.4943278  43.6849543  13.7333374   7.3297392  43.0593489  12.3646135
   1.8037690  39.1316403  18.3628306   1.6657488  38.3996642  18.9639845
   2.7142613  39.0425303  18.0812493   4.4319990  38.8436362  17.8511985
   5.1419609  38.2029554  17.8098604   4.3889299  39.0949257  18.7738166
  12.4206769  45.7803716  20.7718565  12.3619315  45.0962936  20.1049148
  12.8226288  46.5222706  20.3199191   3.1448924  35.8301580  19.6707625
   2.6086281  35.3792319  20.3229221   2.5565633  35.9647489  18.9278089
  12.4224176  43.7443300  19.0032544  11.5350955  43.4069221  19.1258943
  12.9922727  43.0126331  19.2401310   5.9525330  48.4044752  15.9693787
   5.8795501  49.2099723  16.4813092   5.5102723  48.6036718  15.1441809
   5.7415109  47.6416522   9.4796609   4.9582631  48.1838202   9.5734833
   6.4407855  48.1590502   9.8790850   9.0511760  33.4511151  12.1230814
   9.5480459  32.6981114  11.8031885   8.2798741  33.4875468  11.5574024
  16.9041517  39.1551517  13.7649106  16.8931393  40.0376232  13.3943039
  16.0358896  38.8023068  13.5703643   8.4124013  48.3031586  18.1251946
   9.1251986  48.9379051  18.0527848   7.9214042  48.3995452  17.3091948
  10.1341540  42.2082839   9.6969238   9.1997819  42.3284301   9.5273942
  10.3118209  41.3055305   9.4329248   5.6346728  35.5928534  11.8502499
   5.2644516  35.0399575  12.5383405   6.1305821  34.9886668  11.2977499
  13.5214092  38.0500158  10.2319272  13.9874544  38.8828149  10.1579575
  13.9721592  37.5845139  10.9364530   3.4635927  46.0526029  18.9457517
   4.1645386  46.6862512  19.0986911   2.9931042  46.3940761  18.1853156
  11.5890323  44.3943979   7.2305424  11.8650167  44.2800574   8.1399298
  10.7194821  43.9961464   7.1917597  11.4930754  30.4180745  14.2710173
  10.5793834  30.6484972  14.4392380  11.9223856  30.5019189  15.1224206
  11.2637213  38.6070637  16.7710067  10.6108663  38.8546544  16.1162520
  11.6417593  37.7934775  16.4372545   8.2244387  48.6430330  10.8738238
   8.4066781  47.8251986  11.3365990   9.0477373  48.8598022  10.4363128
   8.5586552  47.5698515   8.1353286   9.0874319  47.0590970   7.5223448
   8.8214772  47.2541045   8.9998819   7.3124786  39.3490448  23.2576104
   6.6365423  39.2484577  23.9278480   8.1352420  39.1929662  23.7212102
   6.0547569  50.6557375  17.4933720   6.6065877  50.8188997  18.2582806
   6.3953762  51.2461813  16.8213745   1.0312062  33.0032525  18.0955605
   1.0953388  33.8647356  17.6833003   0.9679182  32.3906527  17.3627964
  10.9058443  45.4818633  23.3482375  11.4498347  46.0948591  22.8537330
  10.3245288  46.0398211  23.8649388   9.1915956  48.6039351  14.4797402
   9.0667095  47.8029091  13.9708348   9.8495047  49.0985544  13.9911372
  11.2550864  46.4048371  16.1076953  10.3081200  46.2853722  16.0355279
  11.6033637  45.5170869  16.1903214   3.6150438  32.2942510  19.9315194
   4.1384840  32.5404806  20.6941504   3.3962771  33.1262545  19.5118332
   8.2597298  46.2001087  12.3081305   8.1122260  45.2717795  12.4888875
   9.0850791  46.2221178  11.8238380  11.8631420  47.0229646  13.3946178
  12.7877967  46.8172507  13.2570629  11.6946723  46.7746047  14.3035519
   4.8202983  33.2356205  17.6164865   4.4799803  32.4364018  18.0185545
   4.1141989  33.5357916  17.0441698   5.4719455  30.3205517  16.0692188
   6.2945524  29.8465996  15.9471078   5.7157518  31.0996001  16.5690874
   2.9958033  37.0124638  13.8784167   2.8502614  37.3264941  14.7708448
   2.5183237  37.6309538  13.3255065   4.8554416  34.0027186  13.9265056
   4.8415985  33.1068279  13.5897354   5.5726844  34.0097850  14.5603342
   6.7080547  34.4364526  15.9718184   6.4498325  35.3581597  15.9702514
   6.1765587  34.0394961  16.6618648  11.6526736  47.5415313   8.7508269
  11.8263613  46.9761736   7.9982121  12.1455627  48.3416208   8.5687759
   7.1282503  30.5696477  12.3319346   7.1504199  30.6335810  11.3771326
   7.5450562  29.7300985  12.5259852  17.5066127  40.3051736  10.3698569
  17.9497273  39.5559061   9.9717692  16.6292637  40.2961873   9.9872301
  12.6401908  46.8582078   5.8505167  13.3352813  47.4788770   6.0692482
  12.9825058  46.0077429   6.1257545  14.5393331  44.3081783   7.3792498
  15.0644655  44.6469056   6.6541818  14.4515684  43.3728799   7.1955633
   6.2013380  48.2215857  19.5082375   6.5100506  47.9765004  20.3805074
   6.9988862  48.4262495  19.0201245   6.2233992  50.3753767  11.7387751
   5.7838982  49.8830145  12.4320608   6.9742109  49.8326734  11.4979826
   3.6707864  45.9191776  13.8110053   3.0487874  45.2562481  13.5112281
   4.3412731  45.9452908  13.1283701   3.7432392  34.3973564  23.4042559
   3.7920547  35.2735686  23.0220329   4.2854906  33.8550957  22.8314202
  14.2287237  44.9414687  22.6843696  13.4382781  44.9238826  22.1448195
  13.9920592  45.4802981  23.4392733  14.3485112  41.7907153  19.9976425
  14.3983117  41.6257161  20.9391947  14.2399036  40.9234412  19.6074305
  11.6388875  37.7738081  21.3135731  12.5398738  37.6344546  21.0219729
  11.7136849  37.9392536  22.2533909   5.9731680  35.1504936  20.1588918
   5.1034990  35.4438502  19.8871506   6.2091161  35.7345381  20.8796181
  15.8503309  44.2104095  20.2418446  15.5588118  44.5734075  21.0781907
  15.2375441  43.4971103  20.0631778  17.0498992  41.7756975  12.7621016
  17.8845883  42.2146779  12.9258577  17.1858120  41.2995628  11.9429262
  14.0990498  39.3336709  18.7098504  14.5744619  39.5264356  17.9017355
  13.1756063  39.3895895  18.4641888   8.6770714  31.3684553  17.6754338
   9.1952658  32.1045580  17.3500827   8.3225847  31.6748546  18.5101097
   8.9283308  27.7884836  13.1955235   9.2085062  27.1208025  13.8215661
   9.7133915  27.9813931  12.6829898  12.7992167  36.2102470  16.9426810
  13.7509589  36.3100567  16.9639034  12.6295617  35.4180738  17.4524894
  10.8206546  33.2958053  17.1286211  10.2256478  33.5763065  16.4332699
  10.5356243  33.7851954  17.9002952   9.9514036  47.2480980   5.8888843
  10.8844710  47.1826541   6.0921719   9.8637249  48.0837246   5.4303376
  12.5802053  46.5646850   2.8492791  12.5015685  46.2306713   3.7428549
  13.4011720  47.0568618   2.8484263  15.2780244  39.4308589  16.0569109
  15.2456564  38.4924590  16.2428793  15.8880868  39.5092626  15.3234934
  15.4274733  36.2219633  16.1027393  14.9113781  35.4378089  15.9157321
  16.3114681  35.8938349  16.2673912  13.0885460  29.9660648  12.0623205
  12.8910281  29.6575736  12.9466537  13.6985165  30.6922287  12.1921135
  21.0956794  40.4924596  15.1975146  21.8260183  40.2309884  15.7582849
  20.4863740  39.7553318  15.2377214  19.1772091  38.6332459  15.7949597
  18.4505255  38.4988424  15.1866089  18.7619378  38.9409287  16.6006315
   7.0002268  42.3522388  23.5596970   7.9205277  42.5300987  23.7537017
   6.9651851  41.4078434  23.4076670   4.8692206  35.8356629  25.5922500
   4.7688932  36.7850986  25.5234592   4.6513748  35.5074868  24.7198571
  12.2237913  31.9570080   9.3198401  11.6436582  32.6154884   8.9376453
  11.9573846  31.1347425   8.9085818  10.6741480  31.3575138  11.5219721
  11.1741258  31.4691672  10.7134040  11.3177088  31.0536191  12.1620530
   4.7323476  39.2653768  24.4087562   4.2490557  40.0654128  24.6151451
   4.8184415  39.2761712  23.4555006   0.6596813  43.1558302  16.4455996
   1.6140067  43.1242245  16.3785927   0.4609337  42.6948926  17.2606222
   1.2496195  41.7259418  19.0126794   2.0689084  42.2203497  19.0361631
   1.5233003  40.8091386  18.9844361  11.0062791  34.1170171   8.3754749
  10.1188646  34.4019821   8.1574944  11.4216781  33.9563934   7.5282026
  14.3577328  34.1416692  12.0909088  15.1337718  34.6313144  12.3633705
  13.6325462  34.5674746  12.5480958  16.7949886  34.8544311  13.1483029
  17.3894377  34.6140047  12.4376337  16.8676470  34.1351441  13.7756565
  10.9803815  39.6324707   8.5905039  10.9239017  40.0893258   7.7512672
  11.5332158  38.8715391   8.4127882  14.7908621  35.4214438   9.4155159
  14.5345555  35.0211074  10.2463366  14.1661489  36.1358232   9.2905298
  19.1020959  38.1610512  11.9226450  18.5420517  38.2303701  12.6958012
  18.4964462  37.9851496  11.2025946   2.1716168  49.5947239  13.6744636
   2.0548552  50.5392671  13.5723327   1.3508614  49.2920800  14.0630436
  12.0592702  44.3197374   4.5201229  12.8938306  43.8878573   4.3378704
  11.8977045  44.1479388   5.4478124  11.7138595  40.8229488   5.8857568
  11.6587398  40.6573759   4.9446012  11.0884650  41.5305521   6.0419758
   9.0284502  43.1278400  25.2111131   9.8975661  43.3019052  24.8497766
   8.5491253  43.9472816  25.0886861   3.1970682  50.2475501  16.8900565
   4.0997929  50.2799111  17.2067060   2.9708052  49.3175952  16.9046901
   4.9524284  49.0006487  13.5510643   4.0019915  49.0008349  13.4375016
   5.2556770  48.2539222  13.0346678  20.6876977  54.8367026  14.6156406
  21.3255387  54.7173773  13.9119746  20.5697820  55.7847870  14.6744358
  17.4966684  54.7894454  14.5517931  17.1585195  54.6735518  13.6638465
  18.3656452  54.3885619  14.5318937  13.3553499  56.6429930  10.5414821
  12.7918365  56.5519867   9.7731109  13.2405894  55.8229835  11.0217314
  17.9786467  55.9429305  20.5104136  17.9675107  55.5482104  19.6384640
  18.1407106  55.2095378  21.1037908  10.9017931  58.1381122  13.3799042
  11.6939223  57.7971946  12.9645341  11.1414581  58.2476097  14.3001195
  18.9353058  60.3100898   5.8529286  18.2841038  60.8954978   5.4663300
  19.7297421  60.8407093   5.9124324  14.6993728  58.7266417  19.4583320
  14.4083594  59.6312048  19.3429986  15.3350712  58.7682945  20.1727390
  15.6249935  56.1043266  16.0484680  16.2213507  55.8799288  15.3341643
  15.6824906  55.3628011  16.6510128  20.2418246  52.5618479  11.6909614
  21.0281335  52.1437903  11.3400031  20.5056950  53.4664572  11.8591262
  20.4128323  57.9991330   6.3898271  19.7774156  58.0725956   7.1019175
  20.0825730  58.5884929   5.7117350  25.6426673  52.4993713  12.5942592
  26.3751845  51.9292929  12.8280422  24.8866029  52.1115313  13.0349098
  14.9171252  55.4610807   6.0859246  14.8007510  54.7855710   6.7540330
  15.0273512  54.9743181   5.2691399  17.2602793  54.9220954   9.7905935
  16.8961000  54.3951575  10.5018856  18.1169909  54.5319423   9.6172420
  23.1652093  46.2115287  17.0537201  22.8335418  47.0810698  16.8298416
  22.5697707  45.8951571  17.7331231  16.9008280  49.9510854   4.7867283
  17.0682682  50.8191090   5.1537754  16.7105449  50.1138136   3.8628573
  19.6583613  58.4127833  16.4533114  19.3584336  59.3152872  16.3448921
  19.3134672  58.1460016  17.3054267  13.1096094  54.8641630  12.4869818
  12.1846591  54.7317844  12.6947510  13.3580508  55.6435849  12.9839761
  23.0580757  50.9310373  14.1330551  22.1497634  50.8625781  13.8389312
  23.0068352  51.4082318  14.9612377  16.8797501  52.4068511   5.7713950
  16.7597126  52.8525562   6.6099430  16.1850089  52.7553829   5.2127488
  10.4704905  54.5074903  13.3213607  10.5997287  54.7609382  14.2353019
   9.7902357  55.1002611  13.0018262  17.1321622  52.3500019  22.0765448
  16.3554957  52.9093939  22.0668313  17.7712186  52.8356802  22.5980318
  24.9242403  49.1326811  15.9108425  24.2816783  49.4259344  15.2648220
  24.4197332  49.0179732  16.7161622  22.5782567  52.8789985   6.5994284
  23.4900423  53.1117371   6.4241982  22.0692214  53.4627029   6.0369363
  15.3867995  55.1585472  21.6383415  16.1282679  55.6970516  21.3618239
  14.6804980  55.7851761  21.7954967  20.8623334  57.3014612  20.2355577
  21.2706690  56.8597023  19.4910209  20.1400596  56.7267240  20.4889770
  17.2154404  52.2387219  17.6089134  18.0615600  52.6626633  17.7523783
  17.1553042  51.5820843  18.3027697  21.1852149  57.8615803  13.9907866
  20.5561012  58.0261517  13.2883934  20.7977811  58.2757413  14.7618830
  25.0641381  58.7970241  11.3452229  24.3792419  59.1769142  10.7949263
  25.1485230  59.4065567  12.0784177  20.3653850  49.8991587  19.2670307
  20.1214782  50.6533648  18.7304583  20.6413780  50.2776935  20.1017554
  22.3192313  56.4430200  17.9447573  22.5309208  57.0861960  17.2681954
  22.2722061  55.6092516  17.4769503  19.9218542  49.0548021  14.8484145
  19.0603021  49.3529274  15.1400883  19.9480976  49.2718419  13.9165178
  16.7380111  57.5990211  11.2557951  17.2018456  57.8777914  10.4662573
  16.4736909  56.6973656  11.0731041  13.6304192  57.1461693  14.1937714
  14.2005549  57.5748961  13.5555199  14.2212304  56.8644277  14.8921900
  15.6748997  53.7213363   8.0647516  16.3773040  54.1734407   8.5321442
  15.3429626  53.0797182   8.6927409  14.1229359  52.3125120  22.4398725
  13.4928019  52.9941401  22.6734122  14.0165446  52.2008202  21.4951864
   9.4174331  51.9796916  13.3664649   8.6273385  52.2354445  12.8904760
   9.9085578  52.7945254  13.4716690  23.4338141  59.3202155  16.1169930
  24.2555584  58.9182343  15.8352612  23.4300543  59.2170389  17.0686046
  11.3689076  52.3441495  10.3248126  10.5720240  52.4560190  10.8431622
  11.1414669  52.6828148   9.4589017  17.1994744  58.8686199  18.2730641
  17.2639176  59.3306606  19.1088813  16.4905668  58.2383563  18.4012951
   7.7012034  52.2327407  15.7979640   7.9520072  53.1174416  16.0637216
   8.2371582  52.0532008  15.0254732  31.5244134  55.6640904  12.4654902
  30.7707842  55.0948302  12.3098906  31.6591675  55.6303568  13.4125536
  16.9142762  60.5354306   8.1409621  16.7788436  61.3805842   8.5694469
  17.4552574  60.7373584   7.3775555  13.4010101  46.6145886  24.8023976
  13.0077047  46.0612084  25.4771621  14.2176242  46.9256464  25.1930494
  16.3178062  48.0303765  22.3944233  17.0587776  48.6310918  22.3148695
  16.5495985  47.2881403  21.8362275  11.4619400  53.2160132  20.6722463
  11.3472915  52.3145389  20.9729562  10.6063918  53.4623829  20.3207279
  18.5411238  61.1577873  22.2709963  18.0975092  60.3714251  21.9530868
  19.2028452  61.3457023  21.6053854  13.2998359  62.6873674  16.7970642
  13.8505784  62.5590738  16.0247636  12.4609835  62.9868563  16.4465535
  20.6392476  61.4380672  20.2991364  20.6210951  62.2589554  19.8071634
  21.5612396  61.3134748  20.5241506  17.0965530  58.9524802  21.1414873
  17.6293867  58.1913090  20.9114181  16.5679611  58.6598454  21.8839027
  20.2635225  44.0584868  16.6708515  19.9199495  44.9486510  16.5947625
  20.6314188  43.8686526  15.8078100  20.2285508  54.0493479   5.1780950
  19.7132131  54.8198084   5.4169337  19.9562816  53.3758615   5.8014011
  17.8132619  48.8943180  10.2366188  16.9574215  48.5050030  10.0571827
  18.2259571  48.9735141   9.3765974  19.3431766  46.4289523  14.6357748
  18.8396561  46.3919658  13.8225553  19.6362372  47.3382266  14.6954405
  15.5874651  46.5128253  13.6423930  16.4527648  46.3171062  13.2829819
  15.6552160  46.2838605  14.5693286  25.2019782  56.8025834   7.1134123
  24.4249225  56.4636993   6.6689285  25.8811263  56.8078457   6.4389088
  20.0171811  51.9220571   7.0040731  19.7121947  52.2366720   7.8550874
  20.9702253  52.0001991   7.0468064  18.4618243  58.0810794   8.6533685
  17.9339605  57.3463554   8.3406922  17.9605746  58.8585471   8.4073653
  23.4411089  56.2759815  13.7700731  22.7834763  56.9659076  13.8580860
  24.2451488  56.6656247  14.1134718  13.1936971  48.7430461  11.0140296
  13.7680722  48.5205642  10.2813489  13.7807953  48.8119155  11.7668898
  22.2516548  54.6304188  11.8204673  22.7648430  55.2634179  12.3226383
  22.9017772  54.0305383  11.4548033  13.5206558  50.7734922   5.0336182
  12.6843870  51.1109608   5.3545456  13.3811327  50.6383902   4.0963319
  15.4959638  45.6171710   9.7415366  14.8424051  45.3020727   9.1171981
  15.4540112  44.9947450  10.4675189  18.7297379  52.1053643  14.0663013
  17.8119940  52.3268590  13.9084702  19.1457522  52.1799954  13.2074721
  19.5132426  53.5045059   9.1965694  20.2604245  54.0166456   8.8872816
  19.7824016  53.1829112  10.0570087  17.7859077  56.0003600   6.1792648
  16.8770296  55.7162632   6.2765118  17.8154160  56.4202678   5.3195955
  23.0178344  59.6110189   9.9483816  22.5640671  58.7701099  10.0049006
  22.3872311  60.2471587  10.2858596  21.9611264  50.5402175  11.1784483
  21.2234020  50.0279561  11.5094726  22.2138037  50.1002557  10.3667760
  21.4611283  61.4486686  10.8833634  21.7534258  62.0091743  10.1645999
  21.9709904  61.7415247  11.6386793  22.0622891  43.3178427  11.7726252
  22.3681768  42.4575791  11.4852167  22.7875496  43.9096047  11.5725246
   8.3547247  53.7209114  10.1607850   8.1571647  53.1278474   9.4358917
   7.7993911  53.4161324  10.8783789  16.3343971  53.6132220  12.2802443
  16.3892580  52.6606057  12.2044920  15.5235173  53.7691659  12.7643742
  14.2736331  52.2309280  10.0392822  13.4604196  52.5303450  10.4458014
  14.7695325  51.8364969  10.7567304  16.4244908  62.2267037  11.9727087
  16.3821087  62.4527883  11.0435619  17.3407607  61.9930411  12.1212888
  19.8710542  52.6951104  18.8707716  20.2259930  52.9222578  19.7302182
  20.5182673  53.0269481  18.2484971  25.6008279  55.8169540   9.5757045
  25.4626178  56.0071136   8.6478234  25.2444498  56.5788923  10.0325096
  13.7650405  49.8027635  15.6554057  14.4049785  49.6616395  14.9577020
  12.9327936  49.5162149  15.2792659  25.6277659  57.8846067  14.5868317
  26.0614165  57.7921356  15.4351371  26.3409239  57.8603568  13.9488333
  14.5410709  59.1030066  11.7689050  15.3351308  58.6080386  11.5671625
  13.8302402  58.5747929  11.4056755  19.3605554  61.4848161  16.1201417
  19.4142576  62.0539098  16.8879133  18.4920335  61.6550046  15.7555454
  10.8493473  53.2473148   7.8448802   9.9191061  53.1857603   8.0618764
  10.9450945  52.7249100   7.0485444  10.7679022  49.7727960  10.4327044
  11.0285839  50.6873294  10.3236204  11.5896194  49.3052403  10.5823657
  12.2403947  51.1865718  17.6025868  12.9127000  50.9783080  16.9538517
  11.4133734  50.9887804  17.1631101  26.4893208  57.9269768  17.1201202
  26.6829098  58.8315578  17.3660477  26.3893826  57.4677187  17.9539787
  18.1429519  47.8127659  19.6191529  17.4957434  48.5117608  19.5256006
  18.9130534  48.2463802  19.9867778  21.5508317  58.0776511  22.6942083
  21.3993823  57.8487062  21.7772166  21.5412996  59.0347112  22.7073428
  18.3193653  55.6508423  17.6788349  19.2485713  55.8019583  17.5057316
  17.8984683  55.7392444  16.8236996  17.1181985  59.6759088  15.4486887
  16.9793071  59.3077872  16.3212825  16.3296581  60.1906727  15.2770845
  18.6687200  59.0540691  12.8375725  18.3337033  59.0141461  13.7333374
  18.1691146  58.3885406  12.3646135  12.6431444  54.4608321  18.3628306
  12.5051242  53.7288559  18.9639845  13.5536368  54.3717221  18.0812493
  21.6046392  56.3996725   3.1112784  20.9875563  55.6743553   3.0145837
  21.1362880  57.1606085   2.7679858  15.2713745  54.1728280  17.8511985
  15.9813363  53.5321472  17.8098604  15.2283053  54.4241175  18.7738166
  23.2600524  61.1095633  20.7718565  23.2013070  60.4254853  20.1049148
  23.6620042  61.8514623  20.3199191  13.9842679  51.1593498  19.6707625
  13.4480036  50.7084236  20.3229221  13.3959387  51.2939407  18.9278089
  23.2617931  59.0735217  19.0032544  22.3744710  58.7361139  19.1258943
  23.8316482  58.3418248  19.2401310   9.7181800  50.2949506  16.7560619
   9.6339989  49.6875175  16.0211029   8.8964507  50.7858524  16.7570116
  16.7919084  63.7336670  15.9693787  16.7189256  64.5391641  16.4813092
  16.3496477  63.9328635  15.1441809  16.5808864  62.9708440   9.4796609
  15.7976386  63.5130120   9.5734833  17.2801609  63.4882419   9.8790850
  19.8905514  48.7803069  12.1230814  20.3874214  48.0273031  11.8031885
  19.1192496  48.8167386  11.5574024  27.7435271  54.4843435  13.7649106
  27.7325148  55.3668150  13.3943039  26.8752651  54.1314985  13.5703643
  19.2517768  63.6323504  18.1251946  19.9645740  64.2670968  18.0527848
  18.7607796  63.7287370  17.3091948  20.9735295  57.5374756   9.6969238
  20.0391573  57.6576219   9.5273942  21.1511963  56.6347223   9.4329248
  16.4740483  50.9220452  11.8502499  16.1038270  50.3691492  12.5383405
  16.9699575  50.3178586  11.2977499  24.3607846  53.3792076  10.2319272
  24.8268298  54.2120067  10.1579575  24.8115347  52.9137057  10.9364530
  14.3029681  61.3817947  18.9457517  15.0039141  62.0154430  19.0986911
  13.8324796  61.7232679  18.1853156  22.4284077  59.7235897   7.2305424
  22.7043921  59.6092491   8.1399298  21.5588576  59.3253382   7.1917597
  22.3324509  45.7472663  14.2710173  21.4187589  45.9776889  14.4392380
  22.7617610  45.8311107  15.1224206  22.1030967  53.9362554  16.7710067
  21.4502418  54.1838462  16.1162520  22.4811347  53.1226693  16.4372545
  19.0638141  63.9722248  10.8738238  19.2460536  63.1543904  11.3365990
  19.8871127  64.1889940  10.4363128  19.3980307  62.8990433   8.1353286
  19.9268073  62.3882887   7.5223448  19.6608526  62.5832963   8.9998819
  18.1518540  54.6782366  23.2576104  17.4759177  54.5776495  23.9278480
  18.9746174  54.5221579  23.7212102   9.8997399  60.9154302  15.8788620
  10.4850836  60.1697990  16.0116524   9.7022238  61.2258259  16.7625283
   4.4915054  53.4859902  14.5993063   4.5299154  52.9523493  15.3930181
   3.9855347  52.9595108  13.9804040  16.8941323  65.9849293  17.4933720
  17.4459631  66.1480915  18.2582806  17.2347517  66.5753731  16.8213745
  11.8705816  48.3324443  18.0955605  11.9347143  49.1939274  17.6833003
  11.8072937  47.7198444  17.3627964  11.3458089  50.4047575  21.7428639
  11.9730128  50.0224653  22.3566164  10.4886008  50.1861777  22.1084332
  21.7452198  60.8110551  23.3482375  22.2892102  61.4240509  22.8537330
  21.1639042  61.3690129  23.8649388  20.0309710  63.9331269  14.4797402
  19.9060850  63.1321008  13.9708348  20.6888802  64.4277462  13.9911372
  11.6517879  50.2880001  13.6574543  10.9304464  50.9015969  13.5182016
  12.4411134  50.8237766  13.5791189  22.0944619  61.7340289  16.1076953
  21.1474954  61.6145640  16.0355279  22.4427392  60.8462787  16.1903214
  14.4544192  47.6234428  19.9315194  14.9778594  47.8696724  20.6941504
  14.2356526  48.4554462  19.5118332   9.8511473  49.8938102   7.7986319
   9.5224179  49.0135481   7.6161425  10.2050844  49.8385771   8.6862708
  19.0991052  61.5293005  12.3081305  18.9516015  60.6009712  12.4888875
  19.9244546  61.5513096  11.8238380  12.9653296  50.1811072   8.1661797
  13.3049369  50.7096993   7.4440405  13.4125417  50.5191478   8.9420363
  22.7025174  62.3521564  13.3946178  23.6271721  62.1464425  13.2570629
  22.5340477  62.1037965  14.3035519  15.6596737  48.5648123  17.6164865
  15.3193558  47.7655936  18.0185545  14.9535744  48.8649833  17.0441698
  16.3113209  45.6497435  16.0692188  17.1339278  45.1757913  15.9471078
  16.5551273  46.4287919  16.5690874  14.9521444  48.6785694   6.3655090
  15.6729806  49.0566946   5.8618807  14.3286748  49.3974570   6.4690068
  19.0952566  49.3830842   7.3013422  19.3116181  50.2655480   7.0002250
  18.6146634  48.9917056   6.5719064  13.8351788  52.3416556  13.8784167
  13.6896369  52.6556859  14.7708448  13.3576992  52.9601456  13.3255065
  15.6948171  49.3319104  13.9265056  15.6809740  48.4360197  13.5897354
  16.4120599  49.3389767  14.5603342  17.5474301  49.7656444  15.9718184
  17.2892079  50.6873515  15.9702514  17.0159342  49.3686878  16.6618648
  22.4920490  62.8707231   8.7508269  22.6657368  62.3053653   7.9982121
  22.9849381  63.6708126   8.5687759   8.3097450  54.8821900  16.8171828
   7.7650918  55.6581708  16.9492102   9.1876800  55.2292705  16.6590949
  15.0985067  48.2133484   9.1952626  15.2200978  47.2850130   9.3943514
  14.8087109  48.2272170   8.2830942  17.9676257  45.8988394  12.3319346
  17.9897954  45.9627727  11.3771326  18.3844316  45.0592903  12.5259852
  28.3459881  55.6343654  10.3698569  28.7891027  54.8850979   9.9717692
  27.4686392  55.6253790   9.9872301  23.4795663  62.1873995   5.8505167
  24.1746567  62.8080688   6.0692482  23.8218813  61.3369347   6.1257545
   9.0963472  54.0091796  19.7101985   8.3545208  54.1574432  20.2966615
   8.7756216  54.2700062  18.8468734  25.3787086  59.6373701   7.3792498
  25.9038410  59.9760974   6.6541818  25.2909438  58.7020716   7.1955633
  17.0407135  63.5507775  19.5082375  17.3494261  63.3056921  20.3805074
  17.8382617  63.7554413  19.0201245  17.0627747  65.7045684  11.7387751
  16.6232737  65.2122063  12.4320608  17.8135864  65.1618652  11.4979826
  14.5101619  61.2483693  13.8110053  13.8881628  60.5854398  13.5112281
  15.1806486  61.2744825  13.1283701  14.5826146  49.7265481  23.4042559
  14.6314302  50.6027604  23.0220329  15.1248660  49.1842874  22.8314202
  25.0680992  60.2706605  22.6843696  24.2776536  60.2530743  22.1448195
  24.8314346  60.8094898  23.4392733  25.1878867  57.1199071  19.9976425
  25.2376872  56.9549078  20.9391947  25.0792790  56.2526330  19.6074305
  22.4782629  53.1029999  21.3135731  23.3792492  52.9636464  21.0219729
  22.5530604  53.2684454  22.2533909  16.8125435  50.4796854  20.1588918
  15.9428744  50.7730420  19.8871506  17.0484915  51.0637299  20.8796181
  26.6897064  59.5396012  20.2418446  26.3981872  59.9025993  21.0781907
  26.0769195  58.8263021  20.0631778  27.8892746  57.1048892  12.7621016
  28.7239637  57.5438696  12.9258577  28.0251875  56.6287545  11.9429262
  24.9384252  54.6628627  18.7098504  25.4138374  54.8556273  17.9017355
  24.0149817  54.7187813  18.4641888  19.5164469  46.6976471  17.6754338
  20.0346412  47.4337498  17.3500827  19.1619601  47.0040464  18.5101097
  19.7677063  43.1176753  13.1955235  20.0478816  42.4499942  13.8215661
  20.5527670  43.3105849  12.6829898  23.6385921  51.5394387  16.9426810
  24.5903344  51.6392485  16.9639034  23.4689371  50.7472656  17.4524894
  21.6600300  48.6249970  17.1286211  21.0650233  48.9054983  16.4332699
  21.3749997  49.1143871  17.9002952  20.7907791  62.5772897   5.8888843
  21.7238464  62.5118459   6.0921719  20.7031004  63.4129164   5.4303376
  23.4195808  61.8938768   2.8492791  23.3409439  61.5598631   3.7428549
  24.2405474  62.3860535   2.8484263  26.1173999  54.7600507  16.0569109
  26.0850319  53.8216508  16.2428793  26.7274622  54.8384544  15.3234934
  17.9557330  53.6296560   2.0996313  18.9016434  53.5002768   2.1684731
  17.5771575  52.8911222   2.5765742  26.2668487  51.5511550  16.1027393
  25.7507536  50.7670007  15.9157321  27.1508436  51.2230267  16.2673912
  23.9279214  45.2952566  12.0623205  23.7304035  44.9867654  12.9466537
  24.5378920  46.0214205  12.1921135  31.9350549  55.8216514  15.1975146
  32.6653937  55.5601802  15.7582849  31.3257494  55.0845236  15.2377214
  30.0165846  53.9624376  15.7949597  29.2899009  53.8280341  15.1866089
  29.6013133  54.2701205  16.6006315  17.8396022  57.6814306  23.5596970
  18.7599032  57.8592905  23.7537017  17.8045605  56.7370351  23.4076670
   7.0578187  52.8752900  12.4850245   6.7380972  52.0218208  12.1924619
   6.5111615  53.0901478  13.2408212  10.8358095  55.5915341  16.2019752
  11.0544105  56.5232448  16.2207785  11.2483869  55.2323315  16.9874555
  17.7562313  46.0983426   8.1895440  16.9463041  45.7530511   8.5650686
  18.4446729  45.7890970   8.7783051  19.6852861  45.1761473   9.8119737
  20.2383899  45.5956926  10.4709760  19.9222947  44.2497221   9.8542693
  15.7085960  51.1648546  25.5922500  15.6082687  52.1142903  25.5234592
  15.4907502  50.8366785  24.7198571  14.9099031  48.4133471   2.1763178
  15.7718195  48.7388370   2.4358995  15.0949376  47.6264967   1.6636244
   6.9266447  56.4955811  14.4543367   6.2329919  56.0809764  13.9413321
   7.6739438  56.5376348  13.8576785  23.0631668  47.2861998   9.3198401
  22.4830337  47.9446802   8.9376453  22.7967601  46.4639343   8.9085818
  21.5135234  46.6867056  11.5219721  22.0135013  46.7983590  10.7134040
  22.1570842  46.3828108  12.1620530  15.5717230  54.5945685  24.4087562
  15.0884312  55.3946045  24.6151451  15.6578169  54.6053630  23.4555006
   8.8403190  56.4274065  12.3309381   8.8173878  56.5261752  11.3791265
   9.1503826  57.2739216  12.6526548  11.4990568  58.4850220  16.4455996
  12.4533821  58.4534162  16.3785927  11.3003091  58.0240844  17.2606222
  12.0889950  57.0551336  19.0126794  12.9082839  57.5495415  19.0361631
  12.3626757  56.1383304  18.9844361  21.8456546  49.4462088   8.3754749
  20.9582401  49.7311739   8.1574944  22.2610535  49.2855852   7.5282026
  25.1971082  49.4708609  12.0909088  25.9731472  49.9605062  12.3633705
  24.4719216  49.8966663  12.5480958  27.6343641  50.1836229  13.1483029
  28.2288132  49.9431964  12.4376337  27.7070224  49.4643359  13.7756565
  21.8197570  54.9616624   8.5905039  21.7632771  55.4185176   7.7512672
  22.3725912  54.2007309   8.4127882  25.6302376  50.7506356   9.4155159
  25.3739310  50.3502992  10.2463366  25.0055244  51.4650150   9.2905298
  29.9414713  53.4902429  11.9226450  29.3814271  53.5595619  12.6958012
  29.3358217  53.3143414  11.2025946  13.0109922  64.9239156  13.6744636
  12.8942306  65.8684589  13.5723327  12.1902369  64.6212718  14.0630436
  22.8986457  59.6489292   4.5201229  23.7332061  59.2170491   4.3378704
  22.7370800  59.4771306   5.4478124  22.5532349  56.1521405   5.8857568
  22.4981153  55.9865677   4.9446012  21.9278404  56.8597438   6.0419758
   7.3424864  51.3889470  19.7118991   7.9883728  50.8788424  20.2006216
   7.1342015  52.1258152  20.2862416  19.8678256  58.4570317  25.2111131
  20.7369416  58.6310970  24.8497766  19.3885008  59.2764734  25.0886861
  15.8628474  45.6529514   5.4642887  15.8507144  46.5971354   5.6211158
  16.7551896  45.4699660   5.1702348  14.0364436  65.5767418  16.8900565
  14.9391683  65.6091029  17.2067060  13.8101806  64.6467869  16.9046901
  15.7918038  64.3298405  13.5510643  14.8413669  64.3300267  13.4375016
  16.0950525  63.5831139  13.0346678  19.6780594  42.2472291   9.7188824
  18.9112990  41.6930778   9.8645506  20.0891299  42.3194160  10.5802975
  11.6822355  48.5357087  23.8094005  12.5453817  48.1793892  24.0197329
  11.1087766  48.1970982  24.4969409  31.5270732  70.1658943  14.6156406
  32.1649142  70.0465691  13.9119746  31.4091575  71.1139787  14.6744358
  28.3360438  70.1186371  14.5517931  27.9978950  70.0027436  13.6638465
  29.2050206  69.7177536  14.5318937  24.1947254  71.9721848  10.5414821
  23.6312119  71.8811785   9.7731109  24.0799649  71.1521752  11.0217314
  28.8180221  71.2721223  20.5104136  28.8068862  70.8774021  19.6384640
  28.9800861  70.5387296  21.1037908  21.7411686  73.4673039  13.3799042
  22.5332978  73.1263864  12.9645341  21.9808336  73.5768014  14.3001195
  25.5387482  74.0558335  19.4583320  25.2477348  74.9603966  19.3429986
  26.1744467  74.0974863  20.1727390  26.4643689  71.4335183  16.0484680
  27.0607261  71.2091206  15.3341643  26.5218661  70.6919929  16.6510128
  31.0812000  67.8910397  11.6909614  31.8675090  67.4729820  11.3400031
  31.3450705  68.7956489  11.8591262  36.4820428  67.8285630  12.5942592
  37.2145599  67.2584847  12.8280422  35.7259783  67.4407231  13.0349098
  25.7565006  70.7902725   6.0859246  25.6401264  70.1147628   6.7540330
  25.8667266  70.3035099   5.2691399  28.0996547  70.2512872   9.7905935
  27.7354754  69.7243493  10.5018856  28.9563663  69.8611341   9.6172420
  34.0045848  61.5407204  17.0537201  33.6729173  62.4102615  16.8298416
  33.4091461  61.2243488  17.7331231  27.7402034  65.2802772   4.7867283
  27.9076437  66.1483008   5.1537754  27.5499203  65.4430053   3.8628573
  30.4977367  73.7419750  16.4533114  30.1978090  74.6444789  16.3448921
  30.1528427  73.4751934  17.3054267  23.9489849  70.1933547  12.4869818
  23.0240345  70.0609761  12.6947510  24.1974262  70.9727767  12.9839761
  33.8974511  66.2602291  14.1330551  32.9891389  66.1917699  13.8389312
  33.8462107  66.7374236  14.9612377  27.7191255  67.7360429   5.7713950
  27.5990880  68.1817480   6.6099430  27.0243843  68.0845747   5.2127488
  21.3098660  69.8366821  13.3213607  21.4391041  70.0901300  14.2353019
  20.6296111  70.4294529  13.0018262  27.9715377  67.6791936  22.0765448
  27.1948711  68.2385856  22.0668313  28.6105940  68.1648719  22.5980318
  35.7636158  64.4618729  15.9108425  35.1210538  64.7551262  15.2648220
  35.2591086  64.3471649  16.7161622  26.2261749  70.4877390  21.6383415
  26.9676434  71.0262434  21.3618239  25.5198735  71.1143678  21.7954967
  31.7017089  72.6306530  20.2355577  32.1100445  72.1888941  19.4910209
  30.9794350  72.0559158  20.4889770  28.0548159  67.5679137  17.6089134
  28.9009354  67.9918550  17.7523783  27.9946797  66.9112761  18.3027697
  32.0245904  73.1907721  13.9907866  31.3954766  73.3553435  13.2883934
  31.6371566  73.6049330  14.7618830  35.9035135  74.1262159  11.3452229
  35.2186174  74.5061060  10.7949263  35.9878985  74.7357485  12.0784177
  31.2047604  65.2283505  19.2670307  30.9608536  65.9825566  18.7304583
  31.4807535  65.6068853  20.1017554  33.1586067  71.7722118  17.9447573
  33.3702962  72.4153877  17.2681954  33.1115815  70.9384434  17.4769503
  30.7612296  64.3839938  14.8484145  29.8996775  64.6821192  15.1400883
  30.7874731  64.6010337  13.9165178  27.5773865  72.9282129  11.2557951
  28.0412211  73.2069832  10.4662573  27.3130664  72.0265573  11.0731041
  24.4697947  72.4753610  14.1937714  25.0399304  72.9040879  13.5555199
  25.0606058  72.1936195  14.8921900  26.5142752  69.0505281   8.0647516
  27.2166795  69.5026325   8.5321442  26.1823380  68.4089100   8.6927409
  24.9623113  67.6417038  22.4398725  24.3321774  68.3233319  22.6734122
  24.8559201  67.5300119  21.4951864  20.2568085  67.3088834  13.3664649
  19.4667139  67.5646362  12.8904760  20.7479333  68.1237172  13.4716690
  34.2731895  74.6494073  16.1169930  35.0949339  74.2474260  15.8352612
  34.2694298  74.5462307  17.0686046  22.2082831  67.6733413  10.3248126
  21.4113994  67.7852107  10.8431622  21.9808423  68.0120065   9.4589017
  28.0388498  74.1978116  18.2730641  28.1032931  74.6598523  19.1088813
  27.3299422  73.5675481  18.4012951  18.5405788  67.5619324  15.7979640
  18.7913827  68.4466334  16.0637216  19.0765337  67.3823926  15.0254732
  42.3637888  70.9932821  12.4654902  41.6101596  70.4240220  12.3098906
  42.4985429  70.9595486  13.4125536  24.2403856  61.9437804  24.8023976
  23.8470801  61.3904002  25.4771621  25.0569996  62.2548382  25.1930494
  27.1571817  63.3595683  22.3944233  27.8981530  63.9602836  22.3148695
  27.3889740  62.6173320  21.8362275  22.3013155  68.5452050  20.6722463
  22.1866670  67.6437307  20.9729562  21.4457673  68.7915747  20.3207279
  29.3804993  76.4869790  22.2709963  28.9368847  75.7006169  21.9530868
  30.0422206  76.6748941  21.6053854  31.4786231  76.7672590  20.2991364
  31.4604706  77.5881471  19.8071634  32.4006151  76.6426665  20.5241506
  27.9359285  74.2816720  21.1414873  28.4687622  73.5205008  20.9114181
  27.4073366  73.9890371  21.8839027  31.1028980  59.3876786  16.6708515
  30.7593249  60.2778427  16.5947625  31.4707942  59.1978443  15.8078100
  28.6526373  64.2235098  10.2366188  27.7967970  63.8341948  10.0571827
  29.0653325  64.3027058   9.3765974  30.1825520  61.7581441  14.6357748
  29.6790316  61.7211576  13.8225553  30.4756127  62.6674183  14.6954405
  26.4268406  61.8420170  13.6423930  27.2921403  61.6462979  13.2829819
  26.4945915  61.6130522  14.5693286  30.8565566  67.2512489   7.0040731
  30.5515701  67.5658638   7.8550874  31.8096008  67.3293909   7.0468064
  29.3011997  73.4102712   8.6533685  28.7733359  72.6755472   8.3406922
  28.7999500  74.1877388   8.4073653  34.2804843  71.6051733  13.7700731
  33.6228518  72.2950994  13.8580860  35.0845243  71.9948165  14.1134718
  24.0330725  64.0722378  11.0140296  24.6074477  63.8497560  10.2813489
  24.6201707  64.1411073  11.7668898  33.0910302  69.9596105  11.8204673
  33.6042184  70.5926097  12.3226383  33.7411526  69.3597301  11.4548033
  24.3600312  66.1026839   5.0336182  23.5237624  66.4401526   5.3545456
  24.2205082  65.9675819   4.0963319  26.3353393  60.9463627   9.7415366
  25.6817805  60.6312644   9.1171981  26.2933867  60.3239368  10.4675189
  29.5691133  67.4345561  14.0663013  28.6513694  67.6560508  13.9084702
  29.9851277  67.5091871  13.2074721  30.3526181  68.8336977   9.1965694
  31.0998000  69.3458374   8.8872816  30.6217770  68.5121029  10.0570087
  32.8005018  65.8694093  11.1784483  32.0627775  65.3571479  11.5094726
  33.0531792  65.4294474  10.3667760  32.9016645  58.6470345  11.7726252
  33.2075522  57.7867708  11.4852167  33.6269250  59.2387965  11.5725246
  19.1941001  69.0501031  10.1607850  18.9965401  68.4570392   9.4358917
  18.6387665  68.7453242  10.8783789  27.1737725  68.9424138  12.2802443
  27.2286335  67.9897974  12.2044920  26.3628927  69.0983577  12.7643742
  25.1130085  67.5601198  10.0392822  24.2997951  67.8595368  10.4458014
  25.6089079  67.1656886  10.7567304  30.7104297  68.0243022  18.8707716
  31.0653684  68.2514495  19.7302182  31.3576428  68.3561399  18.2484971
  24.6044160  65.1319553  15.6554057  25.2443539  64.9908312  14.9577020
  23.7721690  64.8454067  15.2792659  36.4671413  73.2137985  14.5868317
  36.9007920  73.1213274  15.4351371  37.1802994  73.1895485  13.9488333
  25.3804464  74.4321984  11.7689050  26.1745062  73.9372304  11.5671625
  24.6696156  73.9039847  11.4056755  30.1999308  76.8140079  16.1201417
  30.2536330  77.3831015  16.8879133  29.3314090  76.9841964  15.7555454
  21.6887227  68.5765065   7.8448802  20.7584815  68.5149521   8.0618764
  21.7844699  68.0541018   7.0485444  21.6072776  65.1019878  10.4327044
  21.8679593  66.0165211  10.3236204  22.4289949  64.6344321  10.5823657
  23.0797702  66.5157635  17.6025868  23.7520755  66.3074997  16.9538517
  22.2527488  66.3179721  17.1631101  37.3286963  73.2561686  17.1201202
  37.5222853  74.1607496  17.3660477  37.2287581  72.7969105  17.9539787
  28.9823274  63.1419576  19.6191529  28.3351189  63.8409526  19.5256006
  29.7524289  63.5755720  19.9867778  32.3902071  73.4068428  22.6942083
  32.2387578  73.1778980  21.7772166  32.3806751  74.3639030  22.7073428
  29.1587408  70.9800341  17.6788349  30.0879468  71.1311501  17.5057316
  28.7378438  71.0684362  16.8236996  27.9575740  75.0051006  15.4486887
  27.8186825  74.6369790  16.3212825  27.1690336  75.5198645  15.2770845
  29.5080955  74.3832608  12.8375725  29.1730787  74.3433378  13.7333374
  29.0084900  73.7177324  12.3646135  23.4825199  69.7900238  18.3628306
  23.3444997  69.0580477  18.9639845  24.3930122  69.7009138  18.0812493
  26.1107499  69.5020198  17.8511985  26.8207118  68.8613390  17.8098604
  26.0676808  69.7533092  18.7738166  34.0994278  76.4387551  20.7718565
  34.0406824  75.7546771  20.1049148  34.5013797  77.1806541  20.3199191
  24.8236433  66.4885415  19.6707625  24.2873790  66.0376154  20.3229221
  24.2353142  66.6231324  18.9278089  34.1011685  74.4027135  19.0032544
  33.2138464  74.0653057  19.1258943  34.6710236  73.6710166  19.2401310
  20.5575555  65.6241423  16.7560619  20.4733743  65.0167093  16.0211029
  19.7358261  66.1150441  16.7570116  30.7299269  64.1094987  12.1230814
  31.2267968  63.3564949  11.8031885  29.9586250  64.1459303  11.5574024
  38.5829026  69.8135352  13.7649106  38.5718902  70.6960068  13.3943039
  37.7146405  69.4606903  13.5703643  31.8129049  72.8666674   9.6969238
  30.8785328  72.9868136   9.5273942  31.9905718  71.9639141   9.4329248
  27.3134237  66.2512370  11.8502499  26.9432025  65.6983410  12.5383405
  27.8093330  65.6470503  11.2977499  35.2001601  68.7083993  10.2319272
  35.6662053  69.5411985  10.1579575  35.6509101  68.2428975  10.9364530
  33.1718263  61.0764580  14.2710173  32.2581343  61.3068807  14.4392380
  33.6011365  61.1603024  15.1224206  32.9424722  69.2654472  16.7710067
  32.2896172  69.5130380  16.1162520  33.3205102  68.4518610  16.4372545
  28.9912295  70.0074283  23.2576104  28.3152932  69.9068413  23.9278480
  29.8139929  69.8513497  23.7212102  15.3308809  68.8151820  14.5993063
  15.3692908  68.2815411  15.3930181  14.8249101  68.2887025  13.9804040
  22.7099571  63.6616360  18.0955605  22.7740897  64.5231191  17.6833003
  22.6466691  63.0490362  17.3627964  22.1851843  65.7339493  21.7428639
  22.8123882  65.3516570  22.3566164  21.3279762  65.5153695  22.1084332
  32.5845952  76.1402468  23.3482375  33.1285856  76.7532426  22.8537330
  32.0032797  76.6982047  23.8649388  22.4911633  65.6171919  13.6574543
  21.7698219  66.2307886  13.5182016  23.2804889  66.1529684  13.5791189
  32.9338373  77.0632206  16.1076953  31.9868709  76.9437557  16.0355279
  33.2821146  76.1754704  16.1903214  25.2937947  62.9526345  19.9315194
  25.8172349  63.1988642  20.6941504  25.0750280  63.7846380  19.5118332
  20.6905228  65.2230020   7.7986319  20.3617934  64.3427399   7.6161425
  21.0444598  65.1677688   8.6862708  29.9384807  76.8584923  12.3081305
  29.7909769  75.9301630  12.4888875  30.7638300  76.8805013  11.8238380
  23.8047051  65.5102990   8.1661797  24.1443123  66.0388911   7.4440405
  24.2519171  65.8483396   8.9420363  33.5418929  77.6813481  13.3946178
  34.4665476  77.4756343  13.2570629  33.3734232  77.4329882  14.3035519
  26.4990492  63.8940040  17.6164865  26.1587312  63.0947853  18.0185545
  25.7929498  64.1941751  17.0441698  27.1506964  60.9789353  16.0692188
  27.9733033  60.5049831  15.9471078  27.3945027  61.7579836  16.5690874
  25.7915198  64.0077611   6.3655090  26.5123561  64.3858864   5.8618807
  25.1680502  64.7266488   6.4690068  29.9346321  64.7122760   7.3013422
  30.1509935  65.5947398   7.0002250  29.4540388  64.3208974   6.5719064
  24.6745542  67.6708473  13.8784167  24.5290123  67.9848776  14.7708448
  24.1970746  68.2893374  13.3255065  26.5341925  64.6611021  13.9265056
  26.5203494  63.7652115  13.5897354  27.2514353  64.6681685  14.5603342
  28.3868056  65.0948362  15.9718184  28.1285834  66.0165432  15.9702514
  27.8553096  64.6978796  16.6618648  19.1491205  70.2113818  16.8171828
  18.6044673  70.9873626  16.9492102  20.0270554  70.5584622  16.6590949
  25.9378821  63.5425402   9.1952626  26.0594732  62.6142048   9.3943514
  25.6480864  63.5564088   8.2830942  28.8070012  61.2280312  12.3319346
  28.8291708  61.2919645  11.3771326  29.2238071  60.3884821  12.5259852
  39.1853636  70.9635572  10.3698569  39.6284782  70.2142897   9.9717692
  38.3080146  70.9545708   9.9872301  19.9357226  69.3383714  19.7101985
  19.1938962  69.4866349  20.2966615  19.6149971  69.5991980  18.8468734
  25.4219901  65.0557399  23.4042559  25.4708056  65.9319522  23.0220329
  25.9642415  64.5134792  22.8314202  35.9074746  75.5998522  22.6843696
  35.1170290  75.5822661  22.1448195  35.6708101  76.1386816  23.4392733
  36.0272621  72.4490989  19.9976425  36.0770626  72.2840996  20.9391947
  35.9186545  71.5818248  19.6074305  33.3176384  68.4321917  21.3135731
  34.2186247  68.2928382  21.0219729  33.3924358  68.5976371  22.2533909
  27.6519189  65.8088771  20.1588918  26.7822499  66.1022337  19.8871506
  27.8878670  66.3929216  20.8796181  37.5290818  74.8687930  20.2418446
  37.2375627  75.2317911  21.0781907  36.9162950  74.1554938  20.0631778
  38.7286501  72.4340810  12.7621016  39.5633392  72.8730614  12.9258577
  38.8645629  71.9579463  11.9429262  35.7778007  69.9920545  18.7098504
  36.2532128  70.1848191  17.9017355  34.8543572  70.0479731  18.4641888
  30.3558223  62.0268388  17.6754338  30.8740167  62.7629415  17.3500827
  30.0013356  62.3332382  18.5101097  30.6070817  58.4468671  13.1955235
  30.8872571  57.7791860  13.8215661  31.3921424  58.6397766  12.6829898
  34.4779676  66.8686305  16.9426810  35.4297098  66.9684403  16.9639034
  34.3083126  66.0764573  17.4524894  32.4994055  63.9541888  17.1286211
  31.9043987  64.2346901  16.4332699  32.2143752  64.4435789  17.9002952
  36.9567753  70.0892425  16.0569109  36.9244073  69.1508425  16.2428793
  37.5668377  70.1676461  15.3234934  37.1062242  66.8803468  16.1027393
  36.5901290  66.0961925  15.9157321  37.9902190  66.5522185  16.2673912
  34.7672969  60.6244484  12.0623205  34.5697790  60.3159572  12.9466537
  35.3772674  61.3506122  12.1921135  42.7744303  71.1508431  15.1975146
  43.5047692  70.8893720  15.7582849  42.1651249  70.4137153  15.2377214
  40.8559600  69.2916294  15.7949597  40.1292764  69.1572259  15.1866089
  40.4406887  69.5993123  16.6006315  28.6789777  73.0106224  23.5596970
  29.5992786  73.1884823  23.7537017  28.6439360  72.0662269  23.4076670
  17.8971942  68.2044817  12.4850245  17.5774726  67.3510126  12.1924619
  17.3505370  68.4193395  13.2408212  21.6751849  70.9207258  16.2019752
  21.8937859  71.8524366  16.2207785  22.0877623  70.5615233  16.9874555
  28.5956067  61.4275344   8.1895440  27.7856795  61.0822429   8.5650686
  29.2840484  61.1182887   8.7783051  30.5246615  60.5053390   9.8119737
  31.0777654  60.9248844  10.4709760  30.7616702  59.5789139   9.8542693
  26.5479715  66.4940464  25.5922500  26.4476441  67.4434821  25.5234592
  26.3301257  66.1658703  24.7198571  25.7492786  63.7425389   2.1763178
  26.6111950  64.0680287   2.4358995  25.9343130  62.9556885   1.6636244
  17.7660202  71.8247729  14.4543367  17.0723673  71.4101682  13.9413321
  18.5133193  71.8668265  13.8576785  33.9025422  62.6153916   9.3198401
  33.3224091  63.2738720   8.9376453  33.6361355  61.7931260   8.9085818
  32.3528989  62.0158973  11.5219721  32.8528767  62.1275508  10.7134040
  32.9964597  61.7120026  12.1620530  26.4110985  69.9237603  24.4087562
  25.9278066  70.7237963  24.6151451  26.4971924  69.9345548  23.4555006
  19.6796944  71.7565983  12.3309381  19.6567632  71.8553670  11.3791265
  19.9897581  72.6031133  12.6526548  22.3384322  73.8142138  16.4455996
  23.2927576  73.7826080  16.3785927  22.1396846  73.3532761  17.2606222
  22.9283704  72.3843254  19.0126794  23.7476593  72.8787332  19.0361631
  23.2020512  71.4675222  18.9844361  32.6850300  64.7754006   8.3754749
  31.7976155  65.0603657   8.1574944  33.1004290  64.6147769   7.5282026
  36.0364837  64.8000527  12.0909088  36.8125227  65.2896979  12.3633705
  35.3112971  65.2258581  12.5480958  38.4737395  65.5128146  13.1483029
  39.0681886  65.2723882  12.4376337  38.5463979  64.7935277  13.7756565
  32.6591324  70.2908542   8.5905039  32.6026526  70.7477093   7.7512672
  33.2119667  69.5299227   8.4127882  36.4696130  66.0798274   9.4155159
  36.2133064  65.6794909  10.2463366  35.8448998  66.7942068   9.2905298
  40.7808468  68.8194347  11.9226450  40.2208026  68.8887536  12.6958012
  40.1751971  68.6435332  11.2025946  18.1818618  66.7181388  19.7118991
  18.8277482  66.2080342  20.2006216  17.9735770  67.4550069  20.2862416
  30.7072011  73.7862235  25.2111131  31.5763170  73.9602887  24.8497766
  30.2278762  74.6056652  25.0886861  26.7022229  60.9821432   5.4642887
  26.6900899  61.9263272   5.6211158  27.5945651  60.7991578   5.1702348
  30.5174348  57.5764209   9.7188824  29.7506744  57.0222696   9.8645506
  30.9285053  57.6486078  10.5802975  22.5216109  63.8649005  23.8094005
  23.3847571  63.5085809  24.0197329  21.9481520  63.5262899  24.4969409
  44.8439602  76.8699122  17.0537201  44.5122927  77.7394533  16.8298416
  44.2485216  76.5535406  17.7331231  42.0441359  80.5575423  19.2670307
  41.8002291  81.3117483  18.7304583  42.3201289  80.9360770  20.1017554
  35.0797610  77.2729721  24.8023976  34.6864556  76.7195920  25.4771621
  35.8963751  77.5840300  25.1930494  37.9965571  78.6887600  22.3944233
  38.7375285  79.2894753  22.3148695  38.2283494  77.9465238  21.8362275
  41.9422734  74.7168703  16.6708515  41.5987004  75.6070345  16.5947625
  42.3101697  74.5270361  15.8078100  37.2662160  77.1712088  13.6423930
  38.1315157  76.9754897  13.2829819  37.3339669  76.9422440  14.5693286
  39.8217028  78.4711494  19.6191529  39.1744943  79.1701444  19.5256006
  40.5918043  78.9047638  19.9867778  36.1331701  78.2818263  19.9315194
  36.6566103  78.5280559  20.6941504  35.9144035  79.1138298  19.5118332
  37.3384246  79.2231958  17.6164865  36.9981067  78.4239771  18.0185545
  36.6323253  79.5233669  17.0441698  37.9900718  76.3081270  16.0692188
  38.8126787  75.8341749  15.9471078  38.2338782  77.0871754  16.5690874
  41.1951977  77.3560306  17.6754338  41.7133921  78.0921333  17.3500827
  40.8407110  77.6624299  18.5101097  43.3387809  79.2833806  17.1286211
  42.7437742  79.5638818  16.4332699  43.0537506  79.7727707  17.9002952
  17.9786468  32.9491428   7.2349443  17.9675109  32.5544226   6.3629946
  18.1407107  32.2157501   7.8283214  14.6993729  35.7328540   6.1828627
  14.4083595  36.6374171   6.0675293  15.3350713  35.7745067   6.8972696
  19.6583614  35.4189955   3.1778420  19.3584337  36.3214994   3.0694228
  19.3134674  35.1522139   4.0299573  17.1321624  29.3562141   8.8010755
  16.3554958  29.9156061   8.7913620  17.7712187  29.8418924   9.3225625
  15.3867996  32.1647594   8.3628722  16.1282680  32.7032638   8.0863546
  14.6804982  32.7913883   8.5200274  20.8623336  34.3076735   6.9600883
  21.2706692  33.8659145   6.2155516  20.1400597  33.7329362   7.2135076
  22.3192314  33.4492322   4.6692880  22.5309209  34.0924082   3.9927261
  22.2722062  32.6154639   4.2014810  23.4338142  36.3264278   2.8415237
  24.2555586  35.9244465   2.5597919  23.4300545  36.2232512   3.7931353
  17.1994745  35.8748321   4.9975947  17.2639178  36.3368728   5.8334119
  16.4905669  35.2445686   5.1258257  18.5411239  38.1639995   8.9955270
  18.0975093  37.3776374   8.6776174  19.2028453  38.3519146   8.3299161
  13.2998360  39.6935797   3.5215948  13.8505786  39.5652860   2.7492942
  12.4609836  39.9930686   3.1710841  20.6392477  38.4442795   7.0236671
  20.6210953  39.2651676   6.5316940  21.5612397  38.3196870   7.2486812
  17.0965532  35.9586925   7.8660179  17.6293868  35.1975213   7.6359487
  16.5679613  35.6660576   8.6084334  25.6277660  34.8908190   1.3113623
  26.0614167  34.7983479   2.1596677  26.3409241  34.8665690   0.6733639
  19.3605555  38.4910284   2.8446724  19.4142577  39.0601220   3.6124440
  18.4920336  38.6612169   2.4800761  26.4893210  34.9331891   3.8446509
  26.6829100  35.8377701   4.0905784  26.3893828  34.4739310   4.6785094
  21.5508318  35.0838633   9.4187389  21.3993825  34.8549185   8.5017473
  21.5412998  36.0409235   9.4318734  23.2600525  38.1157756   7.4963871
  23.2013071  37.4316976   6.8294454  23.6620043  38.8576746   7.0444497
  23.2617932  36.0797340   5.7277851  22.3744711  35.7423262   5.8504250
  23.8316483  35.3480371   5.9646616  16.7919086  40.7398792   2.6939094
  16.7189257  41.5453764   3.2058399  16.3496479  40.9390758   1.8687115
  19.2517769  40.6385626   4.8497253  19.9645741  41.2733091   4.7773154
  18.7607798  40.7349492   4.0337255  14.3029683  38.3880070   5.6702824
  15.0039142  39.0216553   5.8232218  13.8324798  38.7294801   4.9098463
  18.1518542  31.6844488   9.9821411  17.4759179  31.5838617  10.6523786
  18.9746175  31.5283702  10.4457408  16.8941324  42.9911416   4.2179027
  17.4459633  43.1543037   4.9828112  17.2347518  43.5815853   3.5459052
  21.7452199  37.8172673  10.0727681  22.2892103  38.4302631   9.5782636
  21.1639044  38.3752252  10.5894694  20.0309712  40.9393391   1.2042709
  19.9060851  40.1383131   0.6953655  20.6888803  41.4339584   0.7156679
  22.0944620  38.7402411   2.8322259  21.1474956  38.6207762   2.7600586
  22.4427393  37.8524909   2.9148521  22.7025175  39.3583686   0.1191484
  23.6271723  39.1526547  -0.0184065  22.5340479  39.1100087   1.0280826
  17.0407136  40.5569897   6.2327681  17.3494262  40.3119044   7.1050381
  17.8382618  40.7616536   5.7446552  25.0680993  37.2768727   9.4089003
  24.2776537  37.2592866   8.8693502  24.8314348  37.8157021  10.1638039
  25.1878868  34.1261194   6.7221731  25.2376873  33.9611201   7.6637254
  25.0792792  33.2588453   6.3319612  22.4782631  30.1092122   8.0381038
  23.3792493  29.9698586   7.7465036  22.5530605  30.2746576   8.9779215
  26.6897065  36.5458135   6.9663753  26.3981873  36.9088116   7.8027214
  26.0769196  35.8325143   6.7877085  24.9384253  31.6690750   5.4343811
  25.4138375  31.8618396   4.6262662  24.0149819  31.7249936   5.1887194
  26.1174000  31.7662629   2.7814416  26.0850320  30.8278630   2.9674100
  26.7274624  31.8446666   2.0480241  31.9350550  32.8278636   1.9220453
  32.6653938  32.5663924   2.4828156  31.3257495  32.0907358   1.9622521
  30.0165847  30.9686499   2.5194904  29.2899011  30.8342464   1.9111396
  29.6013134  31.2763328   3.3251622  17.8396023  34.6876429  10.2842277
  18.7599033  34.8655028  10.4782323  17.8045607  33.7432474  10.1321976
  15.7085961  28.1710669  12.3167807  15.6082688  29.1205026  12.2479898
  15.4907503  27.8428908  11.4443877  15.5717231  31.6007808  11.1332869
  15.0884313  32.4008168  11.3396758  15.6578170  31.6115753  10.1800313
  19.8678257  35.4632440  11.9356438  20.7369417  35.6373092  11.5743073
  19.3885009  36.2826857  11.8132167  14.0364438  42.5829541   3.6145871
  14.9391684  42.6153151   3.9312366  13.8101808  41.6529992   3.6292207
  31.5270733  47.1721066   1.3401712  32.1649143  47.0527813   0.6365053
  31.4091576  48.1201910   1.3989665  28.3360439  47.1248494   1.2763237
  27.9978951  47.0089559   0.3883772  29.2050208  46.7239659   1.2564243
  24.1947255  48.9783970  -2.7339872  23.6312120  48.8873907  -3.5023584
  24.0799650  48.1583875  -2.2537379  28.8180222  48.2783346   7.2349443
  28.8068863  47.8836144   6.3629946  28.9800862  47.5449418   7.8283214
  21.7411687  50.4735162   0.1044349  22.5332979  50.1325987  -0.3109352
  21.9808337  50.5830137   1.0246502  25.5387484  51.0620458   6.1828627
  25.2477350  51.9666088   6.0675293  26.1744468  51.1036985   6.8972696
  26.4643690  48.4397306   2.7729986  27.0607263  48.2153328   2.0586949
  26.5218662  47.6982052   3.3755434  31.0812002  44.8972520  -1.5845079
  31.8675091  44.4791943  -1.9354662  31.3450706  45.8018612  -1.4163431
  36.4820429  44.8347753  -0.6812101  37.2145601  44.2646970  -0.4474272
  35.7259784  44.4469353  -0.2405595  28.0996549  47.2574994  -3.4848759
  27.7354756  46.7305615  -2.7735837  28.9563664  46.8673463  -3.6582273
  34.0045849  38.5469327   3.7782508  33.6729174  39.4164738   3.5543723
  33.4091463  38.2305611   4.4576538  30.4977369  50.7481873   3.1778420
  30.1978092  51.6506912   3.0694228  30.1528428  50.4814056   4.0299573
  23.9489850  47.1995670  -0.7884875  23.0240347  47.0671884  -0.5807183
  24.1974263  47.9789889  -0.2914933  33.8974512  43.2664413   0.8575858
  32.9891390  43.1979822   0.5634619  33.8462108  43.7436358   1.6857683
  21.3098661  46.8428943   0.0458914  21.4391042  47.0963422   0.9598326
  20.6296112  47.4356651  -0.2736431  27.9715378  44.6854059   8.8010755
  27.1948712  45.2447979   8.7913620  28.6105941  45.1710842   9.3225625
  35.7636159  41.4680852   2.6353732  35.1210539  41.7613385   1.9893526
  35.2591087  41.3533772   3.4406928  26.2261751  47.4939512   8.3628722
  26.9676435  48.0324556   8.0863546  25.5198736  48.1205801   8.5200274
  31.7017090  49.6368653   6.9600883  32.1100446  49.1951063   6.2155516
  30.9794352  49.0621280   7.2135076  28.0548160  44.5741259   4.3334440
  28.9009355  44.9980673   4.4769089  27.9946798  43.9174884   5.0273003
  32.0245905  50.1969843   0.7153172  31.3954767  50.3615557   0.0129240
  31.6371567  50.6111453   1.4864136  35.9035137  51.1324281  -1.9302464
  35.2186175  51.5123182  -2.4805431  35.9878986  51.7419608  -1.1970516
  31.2047606  42.2345628   5.9915614  30.9608537  42.9887688   5.4549890
  31.4807536  42.6130975   6.8262861  33.1586068  48.7784240   4.6692880
  33.3702964  49.4216000   3.9927261  33.1115817  47.9446557   4.2014810
  30.7612297  41.3902061   1.5729452  29.8996776  41.6883314   1.8646189
  30.7874732  41.6072460   0.6410484  27.5773867  49.9344251  -2.0196743
  28.0412212  50.2131954  -2.8092120  27.3130665  49.0327696  -2.2023652
  24.4697948  49.4815733   0.9183021  25.0399305  49.9103001   0.2800505
  25.0606060  49.1998318   1.6167206  26.5142753  46.0567404  -5.2107177
  27.2166796  46.5088447  -4.7433251  26.1823381  45.4151223  -4.5827284
  24.9623114  44.6479160   9.1644032  24.3321775  45.3295441   9.3979429
  24.8559202  44.5362242   8.2197170  20.2568087  44.3150956   0.0909956
  19.4667141  44.5708485  -0.3849933  20.7479334  45.1299294   0.1961997
  34.2731896  51.6556196   2.8415237  35.0949340  51.2536383   2.5597919
  34.2694299  51.5524430   3.7931353  22.2082832  44.6795536  -2.9506567
  21.4113995  44.7914230  -2.4323072  21.9808424  45.0182188  -3.8165677
  28.0388500  51.2040239   4.9975947  28.1032932  51.6660646   5.8334119
  27.3299424  50.5737604   5.1258257  18.5405790  44.5681447   2.5224947
  18.7913828  45.4528457   2.7882523  19.0765338  44.3886048   1.7500039
  42.3637889  47.9994944  -0.8099792  41.6101598  47.4302342  -0.9655787
  42.4985431  47.9657609   0.1370843  24.2403857  38.9499926  11.5269283
  23.8470803  38.3966125  12.2016927  25.0569997  39.2610505  11.9175801
  27.1571818  40.3657805   9.1189540  27.8981531  40.9664958   9.0394002
  27.3889741  39.6235443   8.5607582  22.3013156  45.5514173   7.3967769
  22.1866671  44.6499430   7.6974868  21.4457674  45.7977869   7.0452586
  29.3804994  53.4931913   8.9955270  28.9368848  52.7068291   8.6776174
  30.0422207  53.6811063   8.3299161  24.1392115  55.0227714   3.5215948
  24.6899540  54.8944778   2.7492942  23.3003591  55.3222603   3.1710841
  31.4786232  53.7734713   7.0236671  31.4604707  54.5943594   6.5316940
  32.4006152  53.6488788   7.2486812  27.9359286  51.2878842   7.8660179
  28.4687623  50.5267130   7.6359487  27.4073367  50.9952494   8.6084334
  31.1028981  36.3938908   3.3953821  30.7593250  37.2840550   3.3192932
  31.4707944  36.2040566   2.5323406  28.6526375  41.2297220  -3.0388505
  27.7967971  40.8404070  -3.2182867  29.0653326  41.3089181  -3.8988720
  30.1825521  38.7643563   1.3603054  29.6790317  38.7273699   0.5470860
  30.4756128  39.6736306   1.4199711  26.4268407  38.8482293   0.3669236
  27.2921404  38.6525102   0.0075126  26.4945916  38.6192645   1.2938593
  30.8565567  44.2574611  -6.2713962  30.5515702  44.5720761  -5.4203819
  31.8096009  44.3356031  -6.2286629  29.3011999  50.4164835  -4.6221008
  28.7733360  49.6817594  -4.9347771  28.7999501  51.1939511  -4.8681040
  34.2804845  48.6113855   0.4946038  33.6228519  49.3013117   0.5826166
  35.0845244  49.0010287   0.8380024  33.0910304  46.9658228  -1.4550020
  33.6042185  47.5988220  -0.9528311  33.7411527  46.3659423  -1.8206660
  29.5691134  44.4407683   0.7908320  28.6513696  44.6622630   0.6330008
  29.9851278  44.5153994  -0.0679973  30.3526182  45.8399099  -4.0789000
  31.0998001  46.3520496  -4.3881878  30.6217772  45.5183152  -3.2184606
  32.8005019  42.8756215  -2.0970210  32.0627776  42.3633602  -1.7659968
  33.0531793  42.4356597  -2.9086933  32.9016647  35.6532467  -1.5028441
  33.2075523  34.7929831  -1.7902526  33.6269251  36.2450088  -1.7029447
  27.1737726  45.9486260  -0.9952250  27.2286336  44.9960097  -1.0709773
  26.3628928  46.1045700  -0.5110952  25.1130086  44.5663320  -3.2361871
  24.2997952  44.8657491  -2.8296679  25.6089080  44.1719009  -2.5187389
  27.2638664  54.5621077  -1.3027606  27.2214843  54.7881923  -2.2319074
  28.1801363  54.3284452  -1.1541805  30.7104298  45.0305145   5.5953023
  31.0653686  45.2576618   6.4547488  31.3576429  45.3623521   4.9730278
  24.6044161  42.1381676   2.3799364  25.2443540  41.9970435   1.6822327
  23.7721692  41.8516189   2.0037966  36.4671414  50.2200108   1.3113623
  36.9007921  50.1275397   2.1596677  37.1802995  50.1957608   0.6733639
  25.3804465  51.4384106  -1.5065644  26.1745063  50.9434426  -1.7083069
  24.6696157  50.9101969  -1.8697938  30.1999309  53.8202202   2.8446724
  30.2536332  54.3893138   3.6124440  29.3314091  53.9904087   2.4800761
  23.0797703  43.5219758   4.3271175  23.7520756  43.3137120   3.6783824
  22.2527489  43.3241844   3.8876407  37.3286964  50.2623808   3.8446509
  37.5222854  51.1669619   4.0905784  37.2287582  49.8031227   4.6785094
  28.9823275  40.1481699   6.3436836  28.3351190  40.8471648   6.2501312
  29.7524290  40.5817843   6.7113084  32.3902073  50.4130551   9.4187389
  32.2387579  50.1841103   8.5017473  32.3806752  51.3701152   9.4318734
  29.1587409  47.9862464   4.4033656  30.0879469  48.1373623   4.2302623
  28.7378439  48.0746485   3.5482302  27.9575741  52.0113128   2.1732193
  27.8186827  51.6431913   3.0458131  27.1690337  52.5260768   2.0016151
  29.5080956  51.3894731  -0.4378969  29.1730789  51.3495501   0.4578681
  29.0084902  50.7239447  -0.9108559  23.4825200  46.7962361   5.0873612
  23.3444998  46.0642600   5.6885151  24.3930124  46.7071261   4.8057800
  26.1107501  46.5082320   4.5757292  26.8207119  45.8675512   4.5343910
  26.0676809  46.7595215   5.4983473  34.0994279  53.4449674   7.4963871
  34.0406826  52.7608894   6.8294454  34.5013798  54.1868664   7.0444497
  24.8236435  43.4947538   6.3952931  24.2873792  43.0438277   7.0474528
  24.2353143  43.6293447   5.6523396  34.1011687  51.4089257   5.7277851
  33.2138465  51.0715179   5.8504250  34.6710238  50.6772289   5.9646616
  20.5575556  42.6303546   3.4805926  20.4733745  42.0229215   2.7456336
  19.7358262  43.1212564   3.4815422  27.6312840  56.0690710   2.6939094
  27.5583012  56.8745681   3.2058399  27.1890233  56.2682676   1.8687115
  30.7299270  41.1157109  -1.1523879  31.2267969  40.3627072  -1.4722809
  29.9586251  41.1521426  -1.7180670  38.5829027  46.8197475   0.4894412
  38.5718903  47.7022190   0.1188346  37.7146407  46.4669026   0.2948950
  30.0911524  55.9677544   4.8497253  30.8039496  56.6025009   4.7773154
  29.6001552  56.0641410   4.0337255  31.8129050  49.8728797  -3.5785456
  30.8785329  49.9930259  -3.7480751  31.9905719  48.9701263  -3.8425446
  27.3134239  43.2574492  -1.4252194  26.9432026  42.7045533  -0.7371289
  27.8093331  42.6532626  -1.9777194  35.2001602  45.7146116  -3.0435421
  35.6662054  46.5474107  -3.1175119  35.6509102  45.2491097  -2.3390163
  25.1423437  53.7171987   5.6702824  25.8432897  54.3508470   5.8232218
  24.6718552  54.0586719   4.9098463  33.1718265  38.0826703   0.9955480
  32.2581344  38.3130930   1.1637687  33.6011366  38.1665147   1.8469512
  32.9424723  46.2716595   3.4955374  32.2896173  46.5192502   2.8407827
  33.3205103  45.4580733   3.1617851  28.9912296  47.0136406   9.9821411
  28.3152933  46.9130535  10.6523786  29.8139930  46.8575620  10.4457408
  20.7391155  53.2508342   2.6033926  21.3244592  52.5052030   2.7361830
  20.5415994  53.5612299   3.4870590  15.3308810  45.8213943   1.3238369
  15.3692909  45.2877533   2.1175487  14.8249103  45.2949148   0.7049347
  27.7335079  58.3203333   4.2179027  28.2853387  58.4834955   4.9828112
  28.0741272  58.9107771   3.5459052  22.7099572  40.6678483   4.8200912
  22.7740899  41.5293314   4.4078309  22.6466692  40.0552485   4.0873270
  22.1851845  42.7401616   8.4673946  22.8123884  42.3578693   9.0811470
  21.3279764  42.5215818   8.8329638  32.5845953  53.1464591  10.0727681
  33.1285857  53.7594549   9.5782636  32.0032798  53.7044169  10.5894694
  30.8703466  56.2685309   1.2042709  30.7454606  55.4675049   0.6953655
  31.5282557  56.7631502   0.7156679  22.4911634  42.6234041   0.3819849
  21.7698220  43.2370009   0.2427323  23.2804890  43.1591806   0.3036495
  32.9338375  54.0694329   2.8322259  31.9868710  53.9499680   2.7600586
  33.2821148  53.1816827   2.9148521  25.2937948  39.9588468   6.6560501
  25.8172350  40.2050764   7.4186810  25.0750281  40.7908503   6.2363638
  29.9384808  53.8647045  -0.9673389  29.7909770  52.9363753  -0.7865819
  30.7638301  53.8867136  -1.4516313  33.5418930  54.6875604   0.1191484
  34.4665477  54.4818465  -0.0184065  33.3734233  54.4392005   1.0280826
  26.4990493  40.9002163   4.3410172  26.1587313  40.1009976   4.7430852
  25.7929499  41.2003874   3.7687005  27.1506965  37.9851475   2.7937495
  27.9733034  37.5111954   2.6716385  27.3945028  38.7641959   3.2936181
  24.6745544  44.6770596   0.6029473  24.5290124  44.9910899   1.4953755
  24.1970747  45.2955496   0.0500372  26.5341927  41.6673144   0.6510363
  26.5203495  40.7714237   0.3142661  27.2514355  41.6743808   1.2848649
  28.3868057  42.1010484   2.6963490  28.1285835  43.0227555   2.6947821
  27.8553098  41.7040919   3.3863954  19.1491206  47.2175940   3.5417134
  18.6044674  47.9935748   3.6737409  20.0270556  47.5646745   3.3836256
  28.8070013  38.2342435  -0.9435347  28.8291710  38.2981768  -1.8983368
  29.2238072  37.3946943  -0.7494841  39.1853637  47.9697694  -2.9056125
  39.6284783  47.2205019  -3.3037001  38.3080147  47.9607831  -3.2882393
  19.9357228  46.3445837   6.4347291  19.1938964  46.4928472   7.0211922
  19.6149972  46.6054102   5.5714041  27.8800890  55.8861815   6.2327681
  28.1888017  55.6410962   7.1050381  28.6776372  56.0908453   5.7446552
  27.9021502  58.0399724  -1.5366942  27.4626493  57.5476103  -0.8434085
  28.6529619  57.4972692  -1.7774867  25.3495374  53.5837734   0.5355360
  24.7275384  52.9208439   0.2357587  26.0200241  53.6098865  -0.1470993
  25.4219902  42.0619522  10.1287866  25.4708057  42.9381644   9.7465635
  25.9642416  41.5196915   9.5559509  35.9074748  52.6060645   9.4089003
  35.1170291  52.5884784   8.8693502  35.6708102  53.1448939  10.1638039
  36.0272623  49.4553111   6.7221731  36.0770628  49.2903119   7.6637254
  35.9186546  48.5880370   6.3319612  33.3176385  45.4384039   8.0381038
  34.2186248  45.2990504   7.7465036  33.3924360  45.6038494   8.9779215
  27.6519190  42.8150894   6.8834224  26.7822500  43.1084460   6.6116813
  27.8878671  43.3991339   7.6041488  37.5290820  51.8750053   6.9663753
  37.2375628  52.2380033   7.8027214  36.9162951  51.1617061   6.7877085
  38.7286502  49.4402933  -0.5133677  39.5633393  49.8792737  -0.3496117
  38.8645631  48.9641586  -1.3325431  35.7778008  46.9982667   5.4343811
  36.2532129  47.1910314   4.6262662  34.8543573  47.0541853   5.1887194
  30.3558224  39.0330511   4.3999645  30.8740168  39.7691538   4.0746133
  30.0013357  39.3394504   5.2346404  30.6070818  35.4530793  -0.0799459
  30.8872572  34.7853983   0.5460968  31.3921425  35.6459889  -0.5924795
  34.4779677  43.8748427   3.6672116  35.4297100  43.9746525   3.6884340
  34.3083127  43.0826696   4.1770201  32.4994056  40.9604011   3.8531517
  31.9043988  41.2409023   3.1578006  32.2143753  41.4497912   4.6248258
  36.9567755  47.0954547   2.7814416  36.9244075  46.1570548   2.9674100
  37.5668378  47.1738584   2.0480241  37.1062243  43.8865591   2.8272699
  36.5901292  43.1024047   2.6402628  37.9902192  43.5584307   2.9919219
  34.7672970  37.6306606  -1.2131488  34.5697791  37.3221694  -0.3288156
  35.3772676  38.3568245  -1.0833558  42.7744304  48.1570554   1.9220453
  43.5047693  47.8955842   2.4828156  42.1651250  47.4199276   1.9622521
  40.8559602  46.2978417   2.5194904  40.1292765  46.1634382   1.9111396
  40.4406888  46.6055245   3.3251622  28.6789778  50.0168346  10.2842277
  29.5992787  50.1946945  10.4782323  28.6439361  49.0724392  10.1321976
  17.8971943  45.2106940  -0.7904448  17.5774727  44.3572248  -1.0830074
  17.3505371  45.4255518  -0.0346481  21.6751851  47.9269381   2.9265058
  21.8937860  48.8586489   2.9453092  22.0877624  47.5677355   3.7119862
  26.5479716  43.5002587  12.3167807  26.4476443  44.4496944  12.2479898
  26.3301258  43.1720826  11.4443877  17.7660203  48.8309851   1.1788673
  17.0723674  48.4163804   0.6658628  18.5133194  48.8730388   0.5822092
  33.9025424  39.6216038  -3.9556293  33.3224093  40.2800842  -4.3378240
  33.6361356  38.7993383  -4.3668875  32.3528990  39.0221096  -1.7534972
  32.8528768  39.1337630  -2.5620653  32.9964598  38.7182149  -1.1134164
  26.4110986  46.9299726  11.1332869  25.9278068  47.7300086  11.3396758
  26.4971925  46.9407670  10.1800313  19.6796945  48.7628105  -0.9445312
  19.6567634  48.8615792  -1.8963429  19.9897582  49.6093256  -0.6228146
  22.3384323  50.8204260   3.1701303  23.2927577  50.7888203   3.1031234
  22.1396847  50.3594884   3.9851528  22.9283705  49.3905376   5.7372100
  23.7476594  49.8849455   5.7606937  23.2020513  48.4737344   5.7089668
  32.6850302  41.7816129  -4.8999944  31.7976157  42.0665779  -5.1179750
  33.1004291  41.6209892  -5.7472667  36.0364838  41.8062650  -1.1845605
  36.8125228  42.2959102  -0.9120988  35.3112972  42.2320704  -0.7273736
  38.4737396  42.5190269  -0.1271664  39.0681887  42.2786005  -0.8378356
  38.5463980  41.7997399   0.5001872  32.6591325  47.2970665  -4.6849654
  32.6026527  47.7539216  -5.5242022  33.2119668  46.5361349  -4.8626811
  36.4696131  43.0860396  -3.8599535  36.2133066  42.6857032  -3.0291327
  35.8448999  43.8004190  -3.9849396  40.7808469  45.8256470  -1.3528243
  40.2208027  45.8949659  -0.5796681  40.1751973  45.6497454  -2.0728747
  23.8503678  57.2593197   0.3989943  23.7336062  58.2038629   0.2968633
  23.0296124  56.9566758   0.7875742  18.1818620  43.7243510   6.4364297
  18.8277483  43.2142464   6.9251522  17.9735771  44.4612192   7.0107722
  30.7072012  50.7924358  11.9356438  31.5763172  50.9665010  11.5743073
  30.2278763  51.6118774  11.8132167  24.8758192  57.9121459   3.6145871
  25.7785439  57.9445069   3.9312366  24.6495562  56.9821910   3.6292207
  26.6311794  56.6652445   0.2755950  25.6807425  56.6654307   0.1620322
  26.9344280  55.9185180  -0.2408015  22.5216111  40.8711127  10.5339311
  23.3847572  40.5147932  10.7442636  21.9481521  40.5325022  11.2214716
  39.6573977  63.6075263   7.2349443  39.6462618  63.2128062   6.3629946
  39.8194616  62.8741336   7.8283214  44.8439604  53.8761245   3.7782508
  44.5122928  54.7456656   3.5543723  44.2485217  53.5597529   4.4576538
  38.8109133  60.0145976   8.8010755  38.0342467  60.5739897   8.7913620
  39.4499696  60.5002759   9.3225625  37.0655505  62.8231430   8.3628722
  37.8070189  63.3616474   8.0863546  36.3592490  63.4497719   8.5200274
  38.8941915  59.9033177   4.3334440  39.7403110  60.3272591   4.4769089
  38.8340552  59.2466801   5.0273003  42.0441360  57.5637545   5.9915614
  41.8002292  58.3179606   5.4549890  42.3201291  57.9422893   6.8262861
  35.8016869  59.9771078   9.1644032  35.1715529  60.6587359   9.3979429
  35.6952957  59.8654160   8.2197170  29.3799544  59.8973364   2.5224947
  29.6307583  60.7820374   2.7882523  29.9159093  59.7177966   1.7500039
  35.0797612  54.2791844  11.5269283  34.6864557  53.7258042  12.2016927
  35.8963752  54.5902422  11.9175801  37.9965572  55.6949723   9.1189540
  38.7375286  56.2956876   9.0394002  38.2283495  54.9527361   8.5607582
  33.1406911  60.8806090   7.3967769  33.0260426  59.9791347   7.6974868
  32.2851428  61.1269787   7.0452586  38.7753040  66.6170760   7.8660179
  39.3081377  65.8559048   7.6359487  38.2467122  66.3244412   8.6084334
  41.9422735  51.7230826   3.3953821  41.5987005  52.6132468   3.3192932
  42.3101698  51.5332484   2.5323406  37.2662162  54.1774211   0.3669236
  38.1315158  53.9817019   0.0075126  37.3339671  53.9484563   1.2938593
  35.4437916  57.4673593   2.3799364  36.0837295  57.3262353   1.6822327
  34.6115446  57.1808107   2.0037966  33.9191457  58.8511676   4.3271175
  34.5914511  58.6429038   3.6783824  33.0921244  58.6533762   3.8876407
  39.8217029  55.4773616   6.3436836  39.1744944  56.1763566   6.2501312
  40.5918045  55.9109760   6.7113084  43.2295827  65.7422469   9.4187389
  43.0781334  65.5133020   8.5017473  43.2200507  66.6993070   9.4318734
  34.3218955  62.1254279   5.0873612  34.1838752  61.3934517   5.6885151
  35.2323878  62.0363179   4.8057800  36.9501255  61.8374238   4.5757292
  37.6600874  61.1967430   4.5343910  36.9070563  62.0887133   5.4983473
  35.6630189  58.8239456   6.3952931  35.1267546  58.3730194   7.0474528
  35.0746898  58.9585365   5.6523396  31.3969310  57.9595463   3.4805926
  31.3127499  57.3521133   2.7456336  30.5752017  58.4504482   3.4815422
  39.8306051  62.3428323   9.9821411  39.1546688  62.2422453  10.6523786
  40.6533684  62.1867537  10.4457408  26.1702564  61.1505860   1.3238369
  26.2086664  60.6169451   2.1175487  25.6642857  60.6241066   0.7049347
  33.5493327  55.9970401   4.8200912  33.6134653  56.8585232   4.4078309
  33.4860447  55.3844402   4.0873270  33.0245599  58.0693533   8.4673946
  33.6517638  57.6870611   9.0811470  32.1673518  57.8507735   8.8329638
  36.1331702  55.2880385   6.6560501  36.6566104  55.5342682   7.4186810
  35.9144036  56.1200420   6.2363638  37.3384248  56.2294081   4.3410172
  36.9981068  55.4301894   4.7430852  36.6323254  56.5295791   3.7687005
  37.9900719  53.3143393   2.7937495  38.8126789  52.8403871   2.6716385
  38.2338783  54.0933877   3.2936181  39.2261812  57.4302402   2.6963490
  38.9679590  58.3519472   2.6947821  38.6946852  57.0332836   3.3863954
  29.9884960  62.5467858   3.5417134  29.4438428  63.3227666   3.6737409
  30.8664310  62.8938663   3.3836256  30.7750982  61.6737754   6.4347291
  30.0332718  61.8220390   7.0211922  30.4543726  61.9346020   5.5714041
  36.2613656  57.3911439  10.1287866  36.3101812  58.2673562   9.7465635
  36.8036171  56.8488832   9.5559509  44.1570140  60.7675957   8.0381038
  45.0580002  60.6282422   7.7465036  44.2318114  60.9330412   8.9779215
  38.4912945  58.1442812   6.8834224  37.6216254  58.4376378   6.6116813
  38.7272425  58.7283257   7.6041488  41.1951979  54.3622429   4.3999645
  41.7133923  55.0983456   4.0746133  40.8407112  54.6686422   5.2346404
  43.3387811  56.2895928   3.8531517  42.7437743  56.5700941   3.1578006
  43.0537507  56.7789829   4.6248258  39.5183532  65.3460264  10.2842277
  40.4386542  65.5238863  10.4782323  39.4833115  64.4016309  10.1321976
  37.3873470  58.8294504  12.3167807  37.2870197  59.7788861  12.2479898
  37.1695012  58.5012743  11.4443877  37.2504740  62.2591643  11.1332869
  36.7671822  63.0592003  11.3396758  37.3365679  62.2699588  10.1800313
  33.7677460  64.7197294   5.7372100  34.5870349  65.2141373   5.7606937
  34.0414268  63.8029262   5.7089668  29.0212374  59.0535428   6.4364297
  29.6671238  58.5434382   6.9251522  28.8129525  59.7904109   7.0107722
  41.5465766  66.1216275  11.9356438  42.4156926  66.2956928  11.5743073
  41.0672518  66.9410692  11.8132167  33.3609865  56.2003045  10.5339311
  34.2241327  55.8439850  10.7442636  32.7875276  55.8616940  11.2214716
  39.6573978  40.6137386  -6.0405251  39.6462619  40.2190184  -6.9124747
  39.8194618  39.8803459  -5.4471479  38.8109134  37.0208099  -4.4743938
  38.0342468  37.5802019  -4.4841074  39.4499697  37.5064882  -3.9529068
  37.0655506  39.8293552  -4.9125971  37.8070191  40.3678596  -5.1891148
  36.3592492  40.4559841  -4.7554420  38.7753042  43.6232883  -5.4094514
  39.3081379  42.8621171  -5.6395206  38.2467123  43.3306534  -4.6670359
  43.2295828  42.7484591  -3.8567304  43.0781335  42.5195143  -4.7737220
  43.2200508  43.7055193  -3.8435959  39.8306052  39.3490446  -3.2933282
  39.1546689  39.2484575  -2.6230907  40.6533686  39.1929660  -2.8297285
  44.1570141  37.7738080  -5.2373655  45.0580004  37.6344544  -5.5289658
  44.2318115  37.9392534  -4.2975478  39.5183534  42.3522387  -2.9912416
  40.4386543  42.5300986  -2.7972370  39.4833117  41.4078432  -3.1432717
  37.3873472  35.8356627  -0.9586886  37.2870198  36.7850984  -1.0274795
  37.1695014  35.5074866  -1.8310816  37.2504742  39.2653766  -2.1421825
  36.7671823  40.0654126  -1.9357936  37.3365681  39.2761711  -3.0954381
  41.5465768  43.1278398  -1.3398256  42.4156927  43.3019050  -1.7011621
  41.0672519  43.9472815  -1.4622526
  79.0826238  79.0826238  79.0826238 109.4712190 109.4712190 109.4712190
