system t= 1500.00000 step= 750000
34285
    1DT5   HO5'    1   2.820   2.796   2.960
    1DT5    O5'    2   2.768   2.862   2.914
    1DT5    C5'    3   2.652   2.891   3.002
    1DT5    H5'    4   2.593   2.960   2.942
    1DT5   H5''    5   2.596   2.798   3.015
    1DT5    C4'    6   2.686   2.958   3.136
    1DT5    H4'    7   2.595   2.993   3.184
    1DT5    O4'    8   2.752   2.863   3.221
    1DT5    C1'    9   2.821   2.941   3.317
    1DT5    H1'   10   2.749   2.977   3.390
    1DT5     N1   11   2.924   2.861   3.386
    1DT5     C6   12   3.024   2.807   3.319
    1DT5     H6   13   3.017   2.812   3.211
    1DT5     C5   14   3.128   2.744   3.382
    1DT5     C7   15   3.239   2.675   3.301
    1DT5    H71   16   3.216   2.680   3.194
    1DT5    H72   17   3.242   2.571   3.335
    1DT5    H73   18   3.337   2.712   3.331
    1DT5     C4   19   3.126   2.732   3.526
    1DT5     O4   20   3.209   2.689   3.603
    1DT5     N3   21   3.013   2.775   3.583
    1DT5     H3   22   2.998   2.744   3.678
    1DT5     C2   23   2.921   2.855   3.526
    1DT5     O2   24   2.839   2.915   3.592
    1DT5    C3'   25   2.777   3.081   3.124
    1DT5    H3'   26   2.823   3.077   3.026
    1DT5    C2'   27   2.875   3.063   3.239
    1DT5    H2'   28   2.872   3.147   3.309
    1DT5   H2''   29   2.973   3.041   3.197
    1DT5    O3'   30   2.701   3.204   3.140
    2DC       P   31   2.640   3.284   3.016
    2DC     OP1   32   2.754   3.311   2.926
    2DC     OP2   33   2.564   3.383   3.093
    2DC     O5'   34   2.532   3.181   2.954
    2DC     C5'   35   2.438   3.217   2.852
    2DC     H5'   36   2.447   3.324   2.832
    2DC    H5''   37   2.458   3.182   2.751
    2DC     C4'   38   2.297   3.171   2.893
    2DC     H4'   39   2.229   3.193   2.811
    2DC     O4'   40   2.294   3.030   2.934
    2DC     C1'   41   2.195   3.010   3.039
    2DC     H1'   42   2.096   2.989   2.998
    2DC      N1   43   2.239   2.896   3.126
    2DC      C6   44   2.321   2.911   3.236
    2DC      H6   45   2.364   3.005   3.268
    2DC      C5   46   2.353   2.804   3.310
    2DC      H5   47   2.421   2.811   3.394
    2DC      C4   48   2.297   2.683   3.282
    2DC      N4   49   2.326   2.576   3.352
    2DC     H41   50   2.265   2.497   3.336
    2DC     H42   51   2.395   2.581   3.426
    2DC      N3   52   2.215   2.658   3.177
    2DC      C2   53   2.192   2.764   3.100
    2DC      O2   54   2.122   2.747   2.999
    2DC     C3'   55   2.243   3.249   3.015
    2DC     H3'   56   2.316   3.303   3.076
    2DC     C2'   57   2.184   3.146   3.109
    2DC     H2'   58   2.252   3.157   3.193
    2DC    H2''   59   2.083   3.163   3.148
    2DC     O3'   60   2.138   3.340   2.983
    3DG       P   61   2.162   3.493   2.977
    3DG     OP1   62   2.065   3.565   2.895
    3DG     OP2   63   2.308   3.514   2.946
    3DG     O5'   64   2.137   3.547   3.120
    3DG     C5'   65   2.219   3.513   3.230
    3DG     H5'   66   2.310   3.466   3.195
    3DG    H5''   67   2.173   3.452   3.308
    3DG     C4'   68   2.259   3.638   3.309
    3DG     H4'   69   2.308   3.598   3.398
    3DG     O4'   70   2.341   3.726   3.233
    3DG     C1'   71   2.278   3.855   3.205
    3DG     H1'   72   2.310   3.932   3.276
    3DG      N9   73   2.315   3.891   3.066
    3DG      C8   74   2.260   3.854   2.945
    3DG      H8   75   2.168   3.797   2.940
    3DG      N7   76   2.324   3.900   2.839
    3DG      C5   77   2.443   3.955   2.899
    3DG      C6   78   2.566   3.992   2.837
    3DG      O6   79   2.611   3.969   2.723
    3DG      N1   80   2.656   4.047   2.925
    3DG      H1   81   2.748   4.071   2.892
    3DG      C2   82   2.631   4.062   3.059
    3DG      N2   83   2.725   4.121   3.128
    3DG     H21   84   2.703   4.168   3.215
    3DG     H22   85   2.803   4.151   3.073
    3DG      N3   86   2.522   4.023   3.119
    3DG      C4   87   2.425   3.971   3.036
    3DG     C3'   88   2.137   3.727   3.348
    3DG     H3'   89   2.044   3.673   3.332
    3DG     C2'   90   2.129   3.839   3.244
    3DG     H2'   91   2.084   3.927   3.291
    3DG    H2''   92   2.072   3.804   3.158
    3DG     O3'   93   2.147   3.762   3.482
    4DG       P   94   2.039   3.854   3.567
    4DG     OP1   95   2.046   3.828   3.711
    4DG     OP2   96   1.903   3.839   3.506
    4DG     O5'   97   2.087   4.004   3.535
    4DG     C5'   98   2.205   4.061   3.590
    4DG     H5'   99   2.286   3.988   3.583
    4DG    H5''  100   2.169   4.078   3.692
    4DG     C4'  101   2.253   4.184   3.525
    4DG     H4'  102   2.337   4.225   3.581
    4DG     O4'  103   2.298   4.167   3.389
    4DG     C1'  104   2.247   4.282   3.312
    4DG     H1'  105   2.303   4.373   3.332
    4DG      N9  106   2.266   4.271   3.167
    4DG      C8  107   2.179   4.234   3.064
    4DG      H8  108   2.076   4.208   3.084
    4DG      N7  109   2.233   4.228   2.944
    4DG      C5  110   2.363   4.280   2.969
    4DG      C6  111   2.467   4.317   2.878
    4DG      O6  112   2.481   4.299   2.754
    4DG      N1  113   2.572   4.382   2.944
    4DG      H1  114   2.653   4.417   2.895
    4DG      C2  115   2.583   4.405   3.080
    4DG      N2  116   2.694   4.469   3.126
    4DG     H21  117   2.713   4.475   3.225
    4DG     H22  118   2.757   4.514   3.061
    4DG      N3  119   2.489   4.365   3.170
    4DG      C4  120   2.378   4.310   3.102
    4DG     C3'  121   2.134   4.286   3.511
    4DG     H3'  122   2.042   4.254   3.560
    4DG     C2'  123   2.106   4.292   3.367
    4DG     H2'  124   2.046   4.205   3.340
    4DG    H2''  125   2.057   4.383   3.333
    4DG     O3'  126   2.174   4.410   3.556
    5DA       P  127   2.146   4.460   3.704
    5DA     OP1  128   2.193   4.356   3.798
    5DA     OP2  129   2.003   4.502   3.715
    5DA     O5'  130   2.237   4.586   3.715
    5DA     C5'  131   2.374   4.564   3.723
    5DA     H5'  132   2.404   4.477   3.664
    5DA    H5''  133   2.396   4.544   3.828
    5DA     C4'  134   2.455   4.684   3.683
    5DA     H4'  135   2.545   4.692   3.744
    5DA     O4'  136   2.489   4.674   3.545
    5DA     C1'  137   2.425   4.779   3.461
    5DA     H1'  138   2.500   4.853   3.432
    5DA      N9  139   2.363   4.722   3.336
    5DA      C8  140   2.242   4.653   3.325
    5DA      H8  141   2.191   4.624   3.415
    5DA      N7  142   2.207   4.611   3.209
    5DA      C5  143   2.316   4.653   3.131
    5DA      C6  144   2.356   4.639   2.997
    5DA      N6  145   2.287   4.584   2.898
    5DA     H61  146   2.193   4.551   2.915
    5DA     H62  147   2.332   4.598   2.808
    5DA      N1  148   2.476   4.688   2.950
    5DA      C2  149   2.545   4.762   3.032
    5DA      H2  150   2.620   4.819   2.980
    5DA      N3  151   2.523   4.783   3.163
    5DA      C4  152   2.406   4.725   3.205
    5DA     C3'  153   2.387   4.823   3.698
    5DA     H3'  154   2.312   4.819   3.776
    5DA     C2'  155   2.321   4.843   3.559
    5DA     H2'  156   2.227   4.788   3.563
    5DA    H2''  157   2.313   4.949   3.533
    5DA     O3'  158   2.495   4.920   3.724
    6DC       P  159   2.476   5.079   3.746
    6DC     OP1  160   2.592   5.136   3.819
    6DC     OP2  161   2.342   5.096   3.802
    6DC     O5'  162   2.476   5.152   3.600
    6DC     C5'  163   2.595   5.149   3.524
    6DC     H5'  164   2.669   5.209   3.576
    6DC    H5''  165   2.634   5.047   3.526
    6DC     C4'  166   2.587   5.201   3.379
    6DC     H4'  167   2.688   5.205   3.340
    6DC     O4'  168   2.510   5.110   3.309
    6DC     C1'  169   2.424   5.189   3.236
    6DC     H1'  170   2.477   5.226   3.148
    6DC      N1  171   2.317   5.099   3.176
    6DC      C6  172   2.193   5.086   3.230
    6DC      H6  173   2.167   5.150   3.313
    6DC      C5  174   2.109   4.995   3.173
    6DC      H5  175   2.008   4.981   3.207
    6DC      C4  176   2.153   4.931   3.049
    6DC      N4  177   2.060   4.860   2.987
    6DC     H41  178   2.074   4.817   2.897
    6DC     H42  179   1.973   4.840   3.033
    6DC      N3  180   2.252   4.969   2.981
    6DC      C2  181   2.337   5.051   3.046
    6DC      O2  182   2.427   5.091   2.973
    6DC     C3'  183   2.512   5.340   3.382
    6DC     H3'  184   2.498   5.385   3.481
    6DC     C2'  185   2.374   5.305   3.326
    6DC     H2'  186   2.303   5.263   3.397
    6DC    H2''  187   2.337   5.388   3.266
    6DC     O3'  188   2.561   5.430   3.286
    7DA       P  189   2.661   5.546   3.312
    7DA     OP1  190   2.783   5.494   3.374
    7DA     OP2  191   2.585   5.647   3.387
    7DA     O5'  192   2.708   5.612   3.173
    7DA     C5'  193   2.797   5.554   3.078
    7DA     H5'  194   2.847   5.465   3.116
    7DA    H5''  195   2.872   5.631   3.067
    7DA     C4'  196   2.720   5.549   2.943
    7DA     H4'  197   2.793   5.530   2.865
    7DA     O4'  198   2.614   5.460   2.933
    7DA     C1'  199   2.502   5.531   2.879
    7DA     H1'  200   2.507   5.534   2.771
    7DA      N9  201   2.377   5.459   2.925
    7DA      C8  202   2.311   5.484   3.040
    7DA      H8  203   2.351   5.549   3.117
    7DA      N7  204   2.204   5.409   3.047
    7DA      C5  205   2.195   5.342   2.930
    7DA      C6  206   2.102   5.252   2.873
    7DA      N6  207   1.995   5.207   2.935
    7DA     H61  208   1.922   5.152   2.893
    7DA     H62  209   1.982   5.245   3.028
    7DA      N1  210   2.117   5.210   2.751
    7DA      C2  211   2.232   5.230   2.689
    7DA      H2  212   2.250   5.193   2.589
    7DA      N3  213   2.331   5.312   2.727
    7DA      C4  214   2.301   5.368   2.848
    7DA     C3'  215   2.677   5.692   2.916
    7DA     H3'  216   2.714   5.764   2.990
    7DA     C2'  217   2.522   5.678   2.924
    7DA     H2'  218   2.477   5.758   2.865
    7DA    H2''  219   2.490   5.694   3.027
    7DA     O3'  220   2.702   5.741   2.787
    8DT       P  221   2.845   5.800   2.751
    8DT     OP1  222   2.941   5.690   2.729
    8DT     OP2  223   2.875   5.894   2.861
    8DT     O5'  224   2.824   5.885   2.613
    8DT     C5'  225   2.799   5.814   2.488
    8DT     H5'  226   2.716   5.744   2.502
    8DT    H5''  227   2.888   5.756   2.462
    8DT     C4'  228   2.765   5.904   2.370
    8DT     H4'  229   2.728   5.843   2.287
    8DT     O4'  230   2.666   5.999   2.400
    8DT     C1'  231   2.721   6.125   2.365
    8DT     H1'  232   2.692   6.141   2.261
    8DT      N1  233   2.664   6.230   2.459
    8DT      C6  234   2.704   6.239   2.590
    8DT      H6  235   2.772   6.172   2.640
    8DT      C5  236   2.664   6.341   2.672
    8DT      C7  237   2.712   6.352   2.809
    8DT     H71  238   2.720   6.457   2.838
    8DT     H72  239   2.645   6.291   2.871
    8DT     H73  240   2.810   6.305   2.818
    8DT      C4  241   2.573   6.449   2.621
    8DT      O4  242   2.519   6.545   2.681
    8DT      N3  243   2.533   6.428   2.486
    8DT      H3  244   2.474   6.500   2.446
    8DT      C2  245   2.574   6.325   2.404
    8DT      O2  246   2.534   6.317   2.286
    8DT     C3'  247   2.887   5.975   2.300
    8DT     H3'  248   2.977   5.923   2.332
    8DT     C2'  249   2.879   6.112   2.371
    8DT     H2'  250   2.921   6.190   2.308
    8DT    H2''  251   2.912   6.088   2.472
    8DT     O3'  252   2.867   5.988   2.163
    9DC       P  253   2.982   6.008   2.070
    9DC     OP1  254   3.066   5.888   2.087
    9DC     OP2  255   3.045   6.140   2.084
    9DC     O5'  256   2.911   6.009   1.938
    9DC     C5'  257   2.896   5.893   1.859
    9DC     H5'  258   2.985   5.870   1.800
    9DC    H5''  259   2.874   5.810   1.926
    9DC     C4'  260   2.783   5.886   1.767
    9DC     H4'  261   2.796   5.803   1.696
    9DC     O4'  262   2.659   5.866   1.833
    9DC     C1'  263   2.564   5.959   1.796
    9DC     H1'  264   2.514   5.918   1.709
    9DC      N1  265   2.467   5.981   1.910
    9DC      C6  266   2.509   5.983   2.039
    9DC      H6  267   2.616   5.972   2.048
    9DC      C5  268   2.421   6.003   2.137
    9DC      H5  269   2.461   5.997   2.237
    9DC      C4  270   2.286   6.023   2.097
    9DC      N4  271   2.194   6.055   2.182
    9DC     H41  272   2.107   6.084   2.140
    9DC     H42  273   2.216   6.040   2.279
    9DC      N3  274   2.241   6.024   1.976
    9DC      C2  275   2.330   6.000   1.883
    9DC      O2  276   2.284   6.016   1.768
    9DC     C3'  277   2.765   6.016   1.685
    9DC     H3'  278   2.850   6.084   1.680
    9DC     C2'  279   2.651   6.079   1.761
    9DC     H2'  280   2.699   6.121   1.850
    9DC    H2''  281   2.594   6.150   1.702
    9DC     O3'  282   2.713   5.994   1.558
   10DG       P  283   2.801   5.918   1.448
   10DG     OP1  284   2.945   5.932   1.478
   10DG     OP2  285   2.748   5.968   1.316
   10DG     O5'  286   2.761   5.763   1.455
   10DG     C5'  287   2.619   5.731   1.441
   10DG     H5'  288   2.589   5.738   1.336
   10DG    H5''  289   2.565   5.808   1.496
   10DG     C4'  290   2.576   5.599   1.506
   10DG     H4'  291   2.619   5.520   1.445
   10DG     O4'  292   2.617   5.610   1.640
   10DG     C1'  293   2.519   5.554   1.722
   10DG     H1'  294   2.519   5.446   1.707
   10DG      N9  295   2.550   5.591   1.861
   10DG      C8  296   2.668   5.577   1.927
   10DG      H8  297   2.752   5.546   1.867
   10DG      N7  298   2.662   5.598   2.054
   10DG      C5  299   2.526   5.620   2.077
   10DG      C6  300   2.460   5.645   2.201
   10DG      O6  301   2.502   5.644   2.319
   10DG      N1  302   2.325   5.663   2.182
   10DG      H1  303   2.261   5.648   2.259
   10DG      C2  304   2.276   5.667   2.055
   10DG      N2  305   2.151   5.696   2.049
   10DG     H21  306   2.096   5.730   2.127
   10DG     H22  307   2.111   5.681   1.958
   10DG      N3  308   2.334   5.638   1.943
   10DG      C4  309   2.462   5.618   1.959
   10DG     C3'  310   2.422   5.585   1.510
   10DG     H3'  311   2.384   5.666   1.448
   10DG     C2'  312   2.393   5.604   1.659
   10DG     H2'  313   2.308   5.541   1.687
   10DG    H2''  314   2.371   5.709   1.677
   10DG     O3'  315   2.388   5.457   1.479
   11DG       P  316   2.233   5.422   1.431
   11DG     OP1  317   2.235   5.292   1.359
   11DG     OP2  318   2.183   5.538   1.358
   11DG     O5'  319   2.136   5.411   1.557
   11DG     C5'  320   2.013   5.343   1.556
   11DG     H5'  321   1.943   5.405   1.501
   11DG    H5''  322   2.020   5.249   1.501
   11DG     C4'  323   1.953   5.299   1.692
   11DG     H4'  324   1.857   5.254   1.669
   11DG     O4'  325   2.031   5.198   1.760
   11DG     C1'  326   2.102   5.267   1.862
   11DG     H1'  327   2.047   5.229   1.948
   11DG      N9  328   2.249   5.237   1.869
   11DG      C8  329   2.339   5.247   1.770
   11DG      H8  330   2.306   5.258   1.667
   11DG      N7  331   2.460   5.239   1.812
   11DG      C5  332   2.452   5.225   1.949
   11DG      C6  333   2.545   5.231   2.058
   11DG      O6  334   2.670   5.256   2.050
   11DG      N1  335   2.493   5.220   2.183
   11DG      H1  336   2.552   5.216   2.265
   11DG      C2  337   2.362   5.219   2.202
   11DG      N2  338   2.323   5.211   2.327
   11DG     H21  339   2.226   5.186   2.343
   11DG     H22  340   2.392   5.215   2.400
   11DG      N3  341   2.265   5.217   2.109
   11DG      C4  342   2.318   5.225   1.983
   11DG     C3'  343   1.939   5.421   1.786
   11DG     H3'  344   1.920   5.511   1.727
   11DG     C2'  345   2.067   5.414   1.863
   11DG     H2'  346   2.061   5.448   1.967
   11DG    H2''  347   2.151   5.459   1.810
   11DG     O3'  348   1.835   5.401   1.885
   12DA       P  349   1.761   5.524   1.948
   12DA     OP1  350   1.641   5.542   1.868
   12DA     OP2  351   1.839   5.645   1.967
   12DA     O5'  352   1.707   5.485   2.100
   12DA     C5'  353   1.806   5.463   2.202
   12DA     H5'  354   1.871   5.388   2.157
   12DA    H5''  355   1.863   5.552   2.228
   12DA     C4'  356   1.747   5.392   2.327
   12DA     H4'  357   1.677   5.318   2.288
   12DA     O4'  358   1.850   5.337   2.402
   12DA     C1'  359   1.883   5.421   2.511
   12DA     H1'  360   1.870   5.363   2.603
   12DA      N9  361   2.022   5.466   2.509
   12DA      C8  362   2.111   5.448   2.410
   12DA      H8  363   2.088   5.379   2.330
   12DA      N7  364   2.220   5.514   2.429
   12DA      C5  365   2.199   5.579   2.551
   12DA      C6  366   2.272   5.668   2.626
   12DA      N6  367   2.394   5.709   2.597
   12DA     H61  368   2.443   5.679   2.514
   12DA     H62  369   2.440   5.775   2.659
   12DA      N1  370   2.223   5.715   2.742
   12DA      C2  371   2.111   5.662   2.783
   12DA      H2  372   2.082   5.692   2.883
   12DA      N3  373   2.026   5.586   2.721
   12DA      C4  374   2.080   5.546   2.605
   12DA     C3'  375   1.670   5.485   2.417
   12DA     H3'  376   1.625   5.567   2.361
   12DA     C2'  377   1.779   5.533   2.502
   12DA     H2'  378   1.816   5.631   2.469
   12DA    H2''  379   1.742   5.559   2.601
   12DA     O3'  380   1.572   5.422   2.509
   13DT       P  381   1.412   5.435   2.480
   13DT     OP1  382   1.387   5.560   2.405
   13DT     OP2  383   1.342   5.395   2.605
   13DT     O5'  384   1.398   5.323   2.357
   13DT     C5'  385   1.429   5.185   2.383
   13DT     H5'  386   1.431   5.146   2.485
   13DT    H5''  387   1.530   5.171   2.344
   13DT     C4'  388   1.333   5.096   2.305
   13DT     H4'  389   1.362   4.993   2.325
   13DT     O4'  390   1.201   5.113   2.360
   13DT     C1'  391   1.103   5.148   2.261
   13DT     H1'  392   1.044   5.058   2.243
   13DT      N1  393   1.019   5.259   2.319
   13DT      C6  394   1.063   5.388   2.326
   13DT      H6  395   1.157   5.420   2.284
   13DT      C5  396   0.996   5.485   2.394
   13DT      C7  397   1.055   5.629   2.395
   13DT     H71  398   1.156   5.633   2.354
   13DT     H72  399   1.055   5.664   2.498
   13DT     H73  400   0.993   5.696   2.335
   13DT      C4  401   0.867   5.460   2.445
   13DT      O4  402   0.783   5.538   2.489
   13DT      N3  403   0.824   5.331   2.433
   13DT      H3  404   0.744   5.303   2.488
   13DT      C2  405   0.894   5.228   2.374
   13DT      O2  406   0.837   5.119   2.369
   13DT     C3'  407   1.328   5.125   2.155
   13DT     H3'  408   1.408   5.194   2.129
   13DT     C2'  409   1.186   5.182   2.133
   13DT     H2'  410   1.196   5.290   2.119
   13DT    H2''  411   1.142   5.137   2.045
   13DT     O3'  412   1.333   5.006   2.075
   14DT       P  413   1.418   4.994   1.945
   14DT     OP1  414   1.407   5.112   1.862
   14DT     OP2  415   1.386   4.868   1.887
   14DT     O5'  416   1.571   4.981   1.996
   14DT     C5'  417   1.680   5.045   1.930
   14DT     H5'  418   1.653   5.150   1.916
   14DT    H5''  419   1.695   5.003   1.831
   14DT     C4'  420   1.808   5.044   2.010
   14DT     H4'  421   1.871   5.124   1.971
   14DT     O4'  422   1.772   5.069   2.141
   14DT     C1'  423   1.886   5.041   2.224
   14DT     H1'  424   1.958   5.123   2.214
   14DT      N1  425   1.868   5.018   2.368
   14DT      C6  426   1.745   4.985   2.421
   14DT      H6  427   1.664   4.955   2.357
   14DT      C5  428   1.721   4.993   2.550
   14DT      C7  429   1.582   4.953   2.593
   14DT     H71  430   1.534   4.899   2.512
   14DT     H72  431   1.584   4.889   2.681
   14DT     H73  432   1.517   5.034   2.626
   14DT      C4  433   1.821   5.056   2.638
   14DT      O4  434   1.808   5.083   2.754
   14DT      N3  435   1.937   5.096   2.578
   14DT      H3  436   1.992   5.160   2.634
   14DT      C2  437   1.968   5.071   2.445
   14DT      O2  438   2.074   5.107   2.402
   14DT     C3'  439   1.876   4.904   2.011
   14DT     H3'  440   1.798   4.829   2.024
   14DT     C2'  441   1.948   4.925   2.145
   14DT     H2'  442   2.051   4.955   2.126
   14DT    H2''  443   1.953   4.832   2.201
   14DT     O3'  444   1.960   4.870   1.902
   15DG       P  445   2.040   4.729   1.897
   15DG     OP1  446   2.069   4.694   1.757
   15DG     OP2  447   1.953   4.638   1.971
   15DG     O5'  448   2.172   4.765   1.979
   15DG     C5'  449   2.262   4.866   1.926
   15DG     H5'  450   2.274   4.848   1.819
   15DG    H5''  451   2.219   4.964   1.948
   15DG     C4'  452   2.402   4.864   1.991
   15DG     H4'  453   2.473   4.927   1.939
   15DG     O4'  454   2.382   4.911   2.123
   15DG     C1'  455   2.428   4.820   2.216
   15DG     H1'  456   2.515   4.860   2.269
   15DG      N9  457   2.322   4.789   2.324
   15DG      C8  458   2.203   4.722   2.299
   15DG      H8  459   2.172   4.675   2.207
   15DG      N7  460   2.134   4.704   2.412
   15DG      C5  461   2.200   4.783   2.502
   15DG      C6  462   2.175   4.801   2.643
   15DG      O6  463   2.077   4.758   2.708
   15DG      N1  464   2.272   4.879   2.709
   15DG      H1  465   2.269   4.889   2.809
   15DG      C2  466   2.387   4.921   2.650
   15DG      N2  467   2.481   4.965   2.729
   15DG     H21  468   2.571   4.980   2.687
   15DG     H22  469   2.467   4.995   2.825
   15DG      N3  470   2.420   4.896   2.521
   15DG      C4  471   2.320   4.827   2.453
   15DG     C3'  472   2.477   4.727   1.991
   15DG     H3'  473   2.422   4.651   1.935
   15DG     C2'  474   2.465   4.693   2.141
   15DG     H2'  475   2.558   4.651   2.179
   15DG    H2''  476   2.390   4.616   2.160
   15DG     O3'  477   2.610   4.744   1.933
   16DT       P  478   2.754   4.678   1.988
   16DT     OP1  479   2.851   4.709   1.878
   16DT     OP2  480   2.732   4.543   2.032
   16DT     O5'  481   2.781   4.761   2.113
   16DT     C5'  482   2.823   4.895   2.104
   16DT     H5'  483   2.886   4.911   2.017
   16DT    H5''  484   2.729   4.948   2.092
   16DT     C4'  485   2.900   4.923   2.233
   16DT     H4'  486   2.920   5.030   2.233
   16DT     O4'  487   2.817   4.902   2.347
   16DT     C1'  488   2.882   4.803   2.428
   16DT     H1'  489   2.944   4.854   2.503
   16DT      N1  490   2.776   4.729   2.489
   16DT      C6  491   2.723   4.620   2.422
   16DT      H6  492   2.764   4.584   2.329
   16DT      C5  493   2.613   4.558   2.474
   16DT      C7  494   2.543   4.455   2.389
   16DT     H71  495   2.443   4.497   2.373
   16DT     H72  496   2.543   4.365   2.450
   16DT     H73  497   2.602   4.443   2.299
   16DT      C4  498   2.550   4.603   2.597
   16DT      O4  499   2.444   4.554   2.644
   16DT      N3  500   2.613   4.705   2.660
   16DT      H3  501   2.561   4.749   2.734
   16DT      C2  502   2.719   4.782   2.608
   16DT      O2  503   2.753   4.883   2.663
   16DT     C3'  504   3.036   4.850   2.248
   16DT     H3'  505   3.075   4.813   2.154
   16DT     C2'  506   2.990   4.738   2.336
   16DT     H2'  507   3.072   4.690   2.390
   16DT    H2''  508   2.948   4.662   2.271
   16DT     O3'  509   3.122   4.941   2.318
   17DC       P  510   3.269   4.903   2.372
   17DC     OP1  511   3.335   5.040   2.391
   17DC     OP2  512   3.329   4.803   2.279
   17DC     O5'  513   3.239   4.852   2.514
   17DC     C5'  514   3.199   4.932   2.623
   17DC     H5'  515   3.283   4.998   2.646
   17DC    H5''  516   3.110   4.985   2.591
   17DC     C4'  517   3.156   4.853   2.745
   17DC     H4'  518   3.119   4.912   2.829
   17DC     O4'  519   3.058   4.759   2.708
   17DC     C1'  520   3.078   4.639   2.774
   17DC     H1'  521   3.056   4.646   2.881
   17DC      N1  522   2.988   4.533   2.723
   17DC      C6  523   3.018   4.453   2.612
   17DC      H6  524   3.110   4.472   2.558
   17DC      C5  525   2.925   4.365   2.565
   17DC      H5  526   2.939   4.311   2.473
   17DC      C4  527   2.801   4.351   2.641
   17DC      N4  528   2.727   4.248   2.626
   17DC     H41  529   2.659   4.223   2.696
   17DC     H42  530   2.735   4.206   2.535
   17DC      N3  531   2.779   4.421   2.753
   17DC      C2  532   2.869   4.515   2.798
   17DC      O2  533   2.843   4.569   2.909
   17DC     C3'  534   3.272   4.777   2.803
   17DC     H3'  535   3.369   4.796   2.757
   17DC     C2'  536   3.230   4.637   2.766
   17DC     H2'  537   3.271   4.568   2.840
   17DC    H2''  538   3.268   4.606   2.669
   17DC     O3'  539   3.288   4.797   2.943
   18DT       P  540   3.379   4.712   3.036
   18DT     OP1  541   3.409   4.795   3.153
   18DT     OP2  542   3.496   4.647   2.968
   18DT     O5'  543   3.268   4.601   3.072
   18DT     C5'  544   3.150   4.639   3.149
   18DT     H5'  545   3.175   4.696   3.238
   18DT    H5''  546   3.093   4.703   3.081
   18DT     C4'  547   3.068   4.519   3.190
   18DT     H4'  548   2.973   4.548   3.235
   18DT     O4'  549   3.037   4.443   3.078
   18DT     C1'  550   3.089   4.314   3.091
   18DT     H1'  551   3.010   4.259   3.142
   18DT      N1  552   3.124   4.254   2.958
   18DT      C6  553   3.233   4.304   2.885
   18DT      H6  554   3.293   4.387   2.920
   18DT      C5  555   3.258   4.262   2.757
   18DT      C7  556   3.377   4.312   2.676
   18DT     H71  557   3.353   4.414   2.647
   18DT     H72  558   3.466   4.309   2.739
   18DT     H73  559   3.390   4.247   2.589
   18DT      C4  560   3.165   4.169   2.688
   18DT      O4  561   3.183   4.111   2.580
   18DT      N3  562   3.059   4.126   2.767
   18DT      H3  563   3.008   4.048   2.727
   18DT      C2  564   3.032   4.163   2.896
   18DT      O2  565   2.928   4.130   2.956
   18DT     C3'  566   3.141   4.428   3.288
   18DT     H3'  567   3.219   4.478   3.346
   18DT     C2'  568   3.204   4.323   3.191
   18DT     H2'  569   3.295   4.367   3.150
   18DT    H2''  570   3.221   4.228   3.241
   18DT     O3'  571   3.045   4.369   3.380
   19DG       P  572   3.079   4.270   3.493
   19DG     OP1  573   2.978   4.302   3.596
   19DG     OP2  574   3.221   4.283   3.519
   19DG     O5'  575   3.053   4.126   3.434
   19DG     C5'  576   2.925   4.076   3.395
   19DG     H5'  577   2.867   4.160   3.356
   19DG    H5''  578   2.879   4.037   3.486
   19DG     C4'  579   2.947   3.959   3.302
   19DG     H4'  580   2.849   3.950   3.255
   19DG     O4'  581   3.037   3.995   3.196
   19DG     C1'  582   3.103   3.880   3.158
   19DG     H1'  583   3.038   3.825   3.090
   19DG      N9  584   3.218   3.914   3.072
   19DG      C8  585   3.337   3.975   3.111
   19DG      H8  586   3.345   4.014   3.211
   19DG      N7  587   3.425   3.976   3.013
   19DG      C5  588   3.360   3.915   2.905
   19DG      C6  589   3.401   3.892   2.770
   19DG      O6  590   3.508   3.920   2.712
   19DG      N1  591   3.300   3.831   2.695
   19DG      H1  592   3.320   3.820   2.597
   19DG      C2  593   3.178   3.794   2.740
   19DG      N2  594   3.105   3.727   2.661
   19DG     H21  595   3.141   3.689   2.575
   19DG     H22  596   3.009   3.718   2.693
   19DG      N3  597   3.135   3.824   2.862
   19DG      C4  598   3.229   3.886   2.941
   19DG     C3'  599   3.003   3.823   3.358
   19DG     H3'  600   3.020   3.831   3.465
   19DG     C2'  601   3.131   3.797   3.275
   19DG     H2'  602   3.224   3.820   3.327
   19DG    H2''  603   3.134   3.692   3.245
   19DG     O3'  604   2.898   3.726   3.327
   20DA3      P  605   2.898   3.575   3.378
   20DA3    OP1  606   2.757   3.539   3.389
   20DA3    OP2  607   2.987   3.568   3.498
   20DA3    O5'  608   2.968   3.505   3.255
   20DA3    C5'  609   2.930   3.521   3.124
   20DA3    H5'  610   2.902   3.626   3.110
   20DA3   H5''  611   2.843   3.455   3.114
   20DA3    C4'  612   3.036   3.482   3.021
   20DA3    H4'  613   2.995   3.484   2.920
   20DA3    O4'  614   3.146   3.573   3.027
   20DA3    C1'  615   3.261   3.506   2.984
   20DA3    H1'  616   3.262   3.516   2.875
   20DA3     N9  617   3.377   3.577   3.049
   20DA3     C8  618   3.412   3.600   3.181
   20DA3     H8  619   3.353   3.555   3.259
   20DA3     N7  620   3.523   3.666   3.204
   20DA3     C5  621   3.578   3.686   3.076
   20DA3     C6  622   3.700   3.732   3.022
   20DA3     N6  623   3.806   3.785   3.078
   20DA3    H61  624   3.885   3.806   3.019
   20DA3    H62  625   3.814   3.789   3.178
   20DA3     N1  626   3.729   3.715   2.892
   20DA3     C2  627   3.637   3.653   2.820
   20DA3     H2  628   3.667   3.619   2.722
   20DA3     N3  629   3.521   3.601   2.854
   20DA3     C4  630   3.486   3.629   2.982
   20DA3    C3'  631   3.097   3.341   3.054
   20DA3    H3'  632   3.087   3.318   3.160
   20DA3    C2'  633   3.251   3.361   3.026
   20DA3    H2'  634   3.293   3.352   3.126
   20DA3   H2''  635   3.296   3.310   2.941
   20DA3    O3'  636   3.024   3.243   2.979
   20DA3   HO3'  637   2.932   3.272   2.980
   21NA+    NA+  638   3.725   6.191   0.842
   22NA+    NA+  639   2.564   6.009   1.163
   23NA+    NA+  640   5.817   7.120   2.814
   24NA+    NA+  641   4.527   1.357   3.849
   25NA+    NA+  642   5.640   4.039   1.362
   26NA+    NA+  643   2.407   0.805   3.282
   27NA+    NA+  644   6.890   0.858   3.734
   28NA+    NA+  645   6.732   0.727   3.226
   29NA+    NA+  646   1.086   2.773   0.958
   30NA+    NA+  647   3.789   0.619   5.222
   31NA+    NA+  648   1.281   5.388   3.042
   32NA+    NA+  649   6.683   5.354   5.139
   33NA+    NA+  650   2.570   6.120   3.163
   34NA+    NA+  651   2.049   6.021   1.821
   35NA+    NA+  652   5.283   0.888   2.142
   36NA+    NA+  653   0.382   5.796   3.470
   37NA+    NA+  654   5.351   1.672   5.889
   38NA+    NA+  655   3.695   6.950   2.830
   39NA+    NA+  656   0.238   4.839   0.418
   40NA+    NA+  657   2.712   5.236   0.705
   41NA+    NA+  658   2.717   5.302   2.515
   42NA+    NA+  659   4.072   4.324   4.258
   43NA+    NA+  660   1.521   6.871   1.062
   44NA+    NA+  661   2.834   3.063   2.019
   45NA+    NA+  662   3.888   3.013   1.632
   46NA+    NA+  663   7.589   4.178   2.753
   47NA+    NA+  664   1.724   0.427   1.555
   48NA+    NA+  665   7.380   1.859   1.138
   49NA+    NA+  666   1.883   2.785   3.497
   50NA+    NA+  667   5.676   2.802   5.072
   51NA+    NA+  668   2.864   4.490   3.496
   52NA+    NA+  669   5.496   0.771   4.990
   53NA+    NA+  670   0.070   1.932   1.939
   54NA+    NA+  671   5.031   1.177   1.568
   55NA+    NA+  672   5.915   0.460   5.925
   56NA+    NA+  673   7.555   5.783   4.789
   57NA+    NA+  674   7.258   6.371   0.373
   58NA+    NA+  675   5.769   4.810   1.582
   59NA+    NA+  676   6.633   3.253   3.613
   60NA+    NA+  677   3.923   5.421   3.666
   61NA+    NA+  678   6.697   2.024   5.384
   62NA+    NA+  679   3.828   1.134   5.112
   63NA+    NA+  680   2.504   3.586   3.043
   64NA+    NA+  681   7.442   4.181   6.102
   65NA+    NA+  682   5.565   3.206   2.431
   66NA+    NA+  683   2.782   2.984   0.266
   67NA+    NA+  684   1.794   5.469   5.010
   68NA+    NA+  685   2.899   0.243   1.504
   69NA+    NA+  686   3.060   4.560   1.527
   70NA+    NA+  687   6.717   6.987   4.622
   71NA+    NA+  688   0.058   5.254   2.541
   72NA+    NA+  689   7.260   3.380   1.322
   73NA+    NA+  690   1.828   4.753   0.558
   74CL-    CL-  691   1.489   1.970   5.254
   75CL-    CL-  692   0.752   1.348   1.860
   76CL-    CL-  693   4.023   3.294   2.291
   77CL-    CL-  694   0.577   4.220   0.452
   78CL-    CL-  695   6.849   2.152   5.980
   79CL-    CL-  696   6.915   1.692   0.138
   80CL-    CL-  697   6.623   4.891   0.670
   81CL-    CL-  698   2.417   4.004   1.101
   82CL-    CL-  699   0.965   0.229   2.285
   83CL-    CL-  700   0.400   5.208   3.616
   84CL-    CL-  701   4.821   6.660   4.508
   85CL-    CL-  702   4.604   6.592   5.818
   86CL-    CL-  703   3.862   6.961   0.852
   87CL-    CL-  704   4.229   1.219   3.484
   88CL-    CL-  705   5.720   3.353   4.697
   89CL-    CL-  706   5.970   6.048   1.366
   90CL-    CL-  707   4.172   4.712   4.790
   91CL-    CL-  708   0.209   4.581   0.540
   92CL-    CL-  709   7.280   2.502   3.518
   93CL-    CL-  710   6.131   5.589   4.771
   94CL-    CL-  711   5.895   2.194   3.115
   95CL-    CL-  712   7.269   1.921   3.640
   96CL-    CL-  713   3.218   6.261   0.841
   97CL-    CL-  714   1.127   6.021   2.375
   98CL-    CL-  715   1.571   2.649   1.166
   99CL-    CL-  716   4.160   4.429   0.529
  100CL-    CL-  717   0.115   4.327   5.808
  101CL-    CL-  718   2.076   2.740   0.150
  102CL-    CL-  719   6.178   0.640   5.577
  103CL-    CL-  720   4.681   2.013   2.263
  104CL-    CL-  721   5.344   1.457   2.262
  105CL-    CL-  722   1.954   1.535   6.128
  106CL-    CL-  723   7.337   4.079   3.182
  107CL-    CL-  724   6.618   3.072   4.084
  108WAT      O  725   3.785   5.886   5.578
  108WAT     H1  726   3.819   5.814   5.525
  108WAT     H2  727   3.752   5.949   5.514
  109WAT      O  728   7.320   3.689   5.187
  109WAT     H1  729   7.387   3.622   5.192
  109WAT     H2  730   7.245   3.651   5.233
  110WAT      O  731   5.679   3.569   0.191
  110WAT     H1  732   5.621   3.535   0.122
  110WAT     H2  733   5.651   3.659   0.204
  111WAT      O  734   6.210   2.439   4.072
  111WAT     H1  735   6.249   2.382   4.006
  111WAT     H2  736   6.208   2.386   4.152
  112WAT      O  737   3.938   2.031   5.154
  112WAT     H1  738   3.852   2.016   5.194
  112WAT     H2  739   3.930   1.996   5.066
  113WAT      O  740   2.947   6.784   0.091
  113WAT     H1  741   2.896   6.759   0.014
  113WAT     H2  742   3.032   6.742   0.079
  114WAT      O  743   7.461   6.428   1.731
  114WAT     H1  744   7.546   6.385   1.732
  114WAT     H2  745   7.408   6.377   1.793
  115WAT      O  746   0.250   5.029   6.164
  115WAT     H1  747   0.307   5.024   6.087
  115WAT     H2  748   0.301   5.078   6.228
  116WAT      O  749   6.032   2.456   5.344
  116WAT     H1  750   6.013   2.511   5.268
  116WAT     H2  751   5.973   2.381   5.334
  117WAT      O  752   1.533   0.248   4.921
  117WAT     H1  753   1.510   0.319   4.981
  117WAT     H2  754   1.456   0.192   4.919
  118WAT      O  755   7.195   1.980   3.346
  118WAT     H1  756   7.211   1.964   3.439
  118WAT     H2  757   7.107   2.017   3.343
  119WAT      O  758   0.766   4.153   4.435
  119WAT     H1  759   0.850   4.107   4.426
  119WAT     H2  760   0.726   4.148   4.348
  120WAT      O  761   6.505   7.082   5.435
  120WAT     H1  762   6.424   7.131   5.423
  120WAT     H2  763   6.544   7.077   5.347
  121WAT      O  764   0.850   2.351   4.356
  121WAT     H1  765   0.854   2.423   4.294
  121WAT     H2  766   0.801   2.283   4.310
  122WAT      O  767   7.202   6.073   6.202
  122WAT     H1  768   7.194   6.156   6.248
  122WAT     H2  769   7.238   6.013   6.267
  123WAT      O  770   6.861   5.121   4.346
  123WAT     H1  771   6.795   5.092   4.283
  123WAT     H2  772   6.823   5.200   4.385
  124WAT      O  773   3.518   1.920   2.485
  124WAT     H1  774   3.445   1.979   2.465
  124WAT     H2  775   3.497   1.886   2.572
  125WAT      O  776   1.459   6.696   0.314
  125WAT     H1  777   1.386   6.651   0.356
  125WAT     H2  778   1.455   6.667   0.223
  126WAT      O  779   1.501   0.825   0.974
  126WAT     H1  780   1.495   0.835   0.879
  126WAT     H2  781   1.513   0.731   0.989
  127WAT      O  782   1.698   4.758   4.556
  127WAT     H1  783   1.671   4.847   4.579
  127WAT     H2  784   1.677   4.706   4.634
  128WAT      O  785   1.982   4.764   5.847
  128WAT     H1  786   2.010   4.674   5.830
  128WAT     H2  787   1.893   4.756   5.881
  129WAT      O  788   1.463   3.350   3.422
  129WAT     H1  789   1.523   3.420   3.397
  129WAT     H2  790   1.417   3.384   3.499
  130WAT      O  791   3.019   3.664   0.784
  130WAT     H1  792   3.064   3.707   0.711
  130WAT     H2  793   2.936   3.711   0.792
  131WAT      O  794   4.641   5.111   2.382
  131WAT     H1  795   4.635   5.082   2.473
  131WAT     H2  796   4.641   5.030   2.331
  132WAT      O  797   5.886   1.937   3.861
  132WAT     H1  798   5.938   1.895   3.929
  132WAT     H2  799   5.942   2.008   3.828
  133WAT      O  800   3.426   2.356   1.393
  133WAT     H1  801   3.367   2.293   1.352
  133WAT     H2  802   3.469   2.399   1.320
  134WAT      O  803   4.029   4.502   2.513
  134WAT     H1  804   3.998   4.496   2.423
  134WAT     H2  805   3.961   4.550   2.559
  135WAT      O  806   3.955   2.759   0.445
  135WAT     H1  807   3.898   2.682   0.447
  135WAT     H2  808   3.909   2.824   0.499
  136WAT      O  809   1.165   5.923   1.364
  136WAT     H1  810   1.070   5.928   1.377
  136WAT     H2  811   1.202   5.950   1.447
  137WAT      O  812   5.044   4.020   1.390
  137WAT     H1  813   5.071   3.995   1.302
  137WAT     H2  814   4.966   4.074   1.376
  138WAT      O  815   2.802   6.824   3.998
  138WAT     H1  816   2.855   6.821   4.078
  138WAT     H2  817   2.861   6.793   3.929
  139WAT      O  818   1.540   5.209   0.280
  139WAT     H1  819   1.521   5.191   0.188
  139WAT     H2  820   1.602   5.282   0.279
  140WAT      O  821   1.943   4.950   0.582
  140WAT     H1  822   1.926   5.037   0.548
  140WAT     H2  823   1.991   4.966   0.664
  141WAT      O  824   7.159   4.986   2.998
  141WAT     H1  825   7.110   4.943   2.927
  141WAT     H2  826   7.166   4.919   3.066
  142WAT      O  827   3.876   0.714   5.995
  142WAT     H1  828   3.925   0.636   5.968
  142WAT     H2  829   3.913   0.785   5.943
  143WAT      O  830   3.214   1.079   1.833
  143WAT     H1  831   3.131   1.103   1.873
  143WAT     H2  832   3.190   1.017   1.764
  144WAT      O  833   2.124   1.870   3.969
  144WAT     H1  834   2.155   1.784   3.939
  144WAT     H2  835   2.142   1.870   4.063
  145WAT      O  836   5.481   5.515   1.004
  145WAT     H1  837   5.461   5.482   0.917
  145WAT     H2  838   5.576   5.517   1.009
  146WAT      O  839   7.227   3.471   0.167
  146WAT     H1  840   7.283   3.536   0.124
  146WAT     H2  841   7.156   3.456   0.104
  147WAT      O  842   4.996   4.517   4.350
  147WAT     H1  843   4.919   4.535   4.296
  147WAT     H2  844   5.068   4.561   4.306
  148WAT      O  845   4.502   1.556   1.409
  148WAT     H1  846   4.552   1.635   1.388
  148WAT     H2  847   4.432   1.586   1.467
  149WAT      O  848   6.645   1.731   6.169
  149WAT     H1  849   6.687   1.647   6.149
  149WAT     H2  850   6.715   1.785   6.207
  150WAT      O  851   2.045   0.538   2.948
  150WAT     H1  852   1.965   0.591   2.944
  150WAT     H2  853   2.062   0.514   2.856
  151WAT      O  854   2.075   1.241   5.385
  151WAT     H1  855   2.165   1.245   5.354
  151WAT     H2  856   2.046   1.152   5.363
  152WAT      O  857   4.562   5.259   2.685
  152WAT     H1  858   4.488   5.318   2.696
  152WAT     H2  859   4.622   5.307   2.628
  153WAT      O  860   3.343   6.397   0.499
  153WAT     H1  861   3.337   6.312   0.456
  153WAT     H2  862   3.309   6.382   0.587
  154WAT      O  863   0.288   2.491   0.567
  154WAT     H1  864   0.216   2.440   0.604
  154WAT     H2  865   0.245   2.568   0.529
  155WAT      O  866   0.729   2.773   6.189
  155WAT     H1  867   0.725   2.757   6.094
  155WAT     H2  868   0.734   2.685   6.227
  156WAT      O  869   7.548   5.952   3.088
  156WAT     H1  870   7.455   5.972   3.095
  156WAT     H2  871   7.579   6.004   3.015
  157WAT      O  872   3.798   0.243   0.013
  157WAT     H1  873   3.889   0.220   0.031
  157WAT     H2  874   3.776   0.194  -0.066
  158WAT      O  875   4.510   5.304   1.246
  158WAT     H1  876   4.430   5.256   1.224
  158WAT     H2  877   4.551   5.321   1.161
  159WAT      O  878   6.712   1.460   6.127
  159WAT     H1  879   6.798   1.492   6.099
  159WAT     H2  880   6.668   1.433   6.046
  160WAT      O  881   7.504   6.084   2.328
  160WAT     H1  882   7.491   6.074   2.422
  160WAT     H2  883   7.464   6.169   2.307
  161WAT      O  884   1.305   3.057   1.975
  161WAT     H1  885   1.326   2.994   1.906
  161WAT     H2  886   1.384   3.060   2.029
  162WAT      O  887   2.218   4.484   4.816
  162WAT     H1  888   2.295   4.428   4.814
  162WAT     H2  889   2.234   4.550   4.748
  163WAT      O  890   7.366   6.849   4.354
  163WAT     H1  891   7.454   6.814   4.343
  163WAT     H2  892   7.345   6.889   4.270
  164WAT      O  893   0.093   2.227   5.804
  164WAT     H1  894   0.027   2.293   5.780
  164WAT     H2  895   0.097   2.168   5.729
  165WAT      O  896   4.167   5.625   3.375
  165WAT     H1  897   4.160   5.572   3.296
  165WAT     H2  898   4.090   5.601   3.427
  166WAT      O  899   7.366   1.026   0.011
  166WAT     H1  900   7.444   1.059  -0.033
  166WAT     H2  901   7.294   1.075  -0.028
  167WAT      O  902   6.916   2.118   3.967
  167WAT     H1  903   6.993   2.114   3.910
  167WAT     H2  904   6.927   2.200   4.015
  168WAT      O  905   7.151   6.722   5.421
  168WAT     H1  906   7.107   6.796   5.463
  168WAT     H2  907   7.081   6.659   5.405
  169WAT      O  908   4.813   5.752   0.115
  169WAT     H1  909   4.904   5.776   0.135
  169WAT     H2  910   4.764   5.832   0.129
  170WAT      O  911   5.236   2.210   5.846
  170WAT     H1  912   5.308   2.216   5.910
  170WAT     H2  913   5.262   2.270   5.776
  171WAT      O  914   2.064   5.725   0.437
  171WAT     H1  915   1.987   5.691   0.392
  171WAT     H2  916   2.052   5.820   0.438
  172WAT      O  917   4.379   7.161   4.682
  172WAT     H1  918   4.348   7.131   4.597
  172WAT     H2  919   4.319   7.232   4.707
  173WAT      O  920   4.099   1.818   2.285
  173WAT     H1  921   4.173   1.823   2.225
  173WAT     H2  922   4.037   1.760   2.241
  174WAT      O  923   4.776   2.807   6.151
  174WAT     H1  924   4.713   2.869   6.187
  174WAT     H2  925   4.813   2.852   6.074
  175WAT      O  926   0.027   6.852   1.398
  175WAT     H1  927  -0.015   6.766   1.390
  175WAT     H2  928   0.067   6.867   1.313
  176WAT      O  929   6.230   6.561   4.932
  176WAT     H1  930   6.247   6.654   4.918
  176WAT     H2  931   6.159   6.559   4.996
  177WAT      O  932   0.533   5.149   0.394
  177WAT     H1  933   0.606   5.091   0.371
  177WAT     H2  934   0.562   5.194   0.473
  178WAT      O  935   1.258   4.730   1.513
  178WAT     H1  936   1.165   4.753   1.516
  178WAT     H2  937   1.295   4.788   1.446
  179WAT      O  938   1.445   3.035   2.952
  179WAT     H1  939   1.496   3.090   2.892
  179WAT     H2  940   1.430   2.954   2.903
  180WAT      O  941   1.687   0.335   3.622
  180WAT     H1  942   1.691   0.254   3.673
  180WAT     H2  943   1.622   0.319   3.554
  181WAT      O  944   7.049   0.126   0.447
  181WAT     H1  945   6.975   0.083   0.403
  181WAT     H2  946   7.009   0.195   0.499
  182WAT      O  947   6.677   1.435   5.184
  182WAT     H1  948   6.642   1.510   5.137
  182WAT     H2  949   6.697   1.371   5.116
  183WAT      O  950   6.944   4.533   2.787
  183WAT     H1  951   6.923   4.457   2.841
  183WAT     H2  952   6.979   4.597   2.849
  184WAT      O  953   5.293   0.271   0.725
  184WAT     H1  954   5.254   0.198   0.773
  184WAT     H2  955   5.301   0.341   0.789
  185WAT      O  956   4.800   6.956   1.738
  185WAT     H1  957   4.860   7.018   1.780
  185WAT     H2  958   4.837   6.944   1.650
  186WAT      O  959   5.583   4.822   4.574
  186WAT     H1  960   5.543   4.761   4.512
  186WAT     H2  961   5.508   4.864   4.617
  187WAT      O  962   5.979   3.034   1.962
  187WAT     H1  963   6.071   3.010   1.966
  187WAT     H2  964   5.954   3.020   1.870
  188WAT      O  965   1.789   2.472   3.204
  188WAT     H1  966   1.713   2.434   3.159
  188WAT     H2  967   1.857   2.404   3.197
  189WAT      O  968   7.339   6.346   1.355
  189WAT     H1  969   7.269   6.280   1.352
  189WAT     H2  970   7.376   6.345   1.266
  190WAT      O  971   2.088   0.437   6.123
  190WAT     H1  972   2.056   0.495   6.192
  190WAT     H2  973   2.152   0.490   6.075
  191WAT      O  974   2.986   6.621   3.583
  191WAT     H1  975   2.938   6.561   3.526
  191WAT     H2  976   3.009   6.695   3.526
  192WAT      O  977   4.770   6.764   3.282
  192WAT     H1  978   4.731   6.840   3.239
  192WAT     H2  979   4.775   6.698   3.213
  193WAT      O  980   6.740   2.860   3.511
  193WAT     H1  981   6.736   2.878   3.417
  193WAT     H2  982   6.814   2.912   3.543
  194WAT      O  983   1.350   0.513   2.660
  194WAT     H1  984   1.326   0.422   2.670
  194WAT     H2  985   1.281   0.551   2.605
  195WAT      O  986   6.652   2.554   4.357
  195WAT     H1  987   6.565   2.514   4.363
  195WAT     H2  988   6.673   2.552   4.264
  196WAT      O  989   3.853   4.189   3.176
  196WAT     H1  990   3.817   4.165   3.090
  196WAT     H2  991   3.794   4.147   3.239
  197WAT      O  992   6.931   2.008   5.396
  197WAT     H1  993   6.973   2.093   5.406
  197WAT     H2  994   6.989   1.959   5.337
  198WAT      O  995   3.807   0.330   2.147
  198WAT     H1  996   3.809   0.421   2.175
  198WAT     H2  997   3.885   0.320   2.092
  199WAT      O  998   3.624   0.583   0.402
  199WAT     H1  999   3.554   0.646   0.385
  199WAT     H2 1000   3.705   0.629   0.378
  200WAT      O 1001   1.121   4.712   2.982
  200WAT     H1 1002   1.178   4.702   2.906
  200WAT     H2 1003   1.061   4.638   2.977
  201WAT      O 1004   7.240   6.825   4.870
  201WAT     H1 1005   7.299   6.892   4.903
  201WAT     H2 1006   7.162   6.873   4.841
  202WAT      O 1007   4.230   1.181   1.631
  202WAT     H1 1008   4.241   1.272   1.658
  202WAT     H2 1009   4.250   1.181   1.538
  203WAT      O 1010   4.317   3.627   1.480
  203WAT     H1 1011   4.269   3.708   1.493
  203WAT     H2 1012   4.253   3.558   1.497
  204WAT      O 1013   1.737   4.154   4.377
  204WAT     H1 1014   1.755   4.178   4.287
  204WAT     H2 1015   1.727   4.058   4.375
  205WAT      O 1016   5.189   0.128   4.228
  205WAT     H1 1017   5.260   0.178   4.268
  205WAT     H2 1018   5.191   0.154   4.136
  206WAT      O 1019   7.293   6.952   3.317
  206WAT     H1 1020   7.200   6.955   3.293
  206WAT     H2 1021   7.330   7.031   3.277
  207WAT      O 1022   3.292   3.538   2.510
  207WAT     H1 1023   3.328   3.478   2.575
  207WAT     H2 1024   3.361   3.545   2.444
  208WAT      O 1025   5.616   0.394   2.368
  208WAT     H1 1026   5.658   0.327   2.313
  208WAT     H2 1027   5.683   0.416   2.433
  209WAT      O 1028   4.216   1.724   4.417
  209WAT     H1 1029   4.264   1.647   4.385
  209WAT     H2 1030   4.272   1.798   4.394
  210WAT      O 1031   2.635   2.455   0.475
  210WAT     H1 1032   2.629   2.487   0.385
  210WAT     H2 1033   2.597   2.367   0.472
  211WAT      O 1034   0.950   5.359   5.040
  211WAT     H1 1035   1.023   5.336   5.097
  211WAT     H2 1036   0.960   5.303   4.964
  212WAT      O 1037   6.328   1.103   2.035
  212WAT     H1 1038   6.295   1.099   2.125
  212WAT     H2 1039   6.317   1.014   2.001
  213WAT      O 1040   4.177   2.889   0.344
  213WAT     H1 1041   4.133   2.820   0.392
  213WAT     H2 1042   4.189   2.853   0.256
  214WAT      O 1043   3.684   6.572   1.538
  214WAT     H1 1044   3.609   6.514   1.530
  214WAT     H2 1045   3.715   6.585   1.448
  215WAT      O 1046   6.083   2.753   2.872
  215WAT     H1 1047   5.996   2.723   2.899
  215WAT     H2 1048   6.082   2.848   2.890
  216WAT      O 1049   6.748   4.969   5.582
  216WAT     H1 1050   6.812   4.998   5.648
  216WAT     H2 1051   6.726   4.880   5.609
  217WAT      O 1052   7.506   1.699   1.248
  217WAT     H1 1053   7.552   1.686   1.331
  217WAT     H2 1054   7.515   1.615   1.202
  218WAT      O 1055   7.059   1.140   1.771
  218WAT     H1 1056   7.127   1.115   1.709
  218WAT     H2 1057   6.991   1.072   1.761
  219WAT      O 1058   6.197   1.460   3.433
  219WAT     H1 1059   6.243   1.457   3.349
  219WAT     H2 1060   6.199   1.370   3.465
  220WAT      O 1061   6.500   4.005   0.531
  220WAT     H1 1062   6.428   4.020   0.470
  220WAT     H2 1063   6.576   4.044   0.488
  221WAT      O 1064   1.808   5.738   6.087
  221WAT     H1 1065   1.730   5.781   6.050
  221WAT     H2 1066   1.873   5.742   6.017
  222WAT      O 1067   3.688   3.930   0.239
  222WAT     H1 1068   3.633   3.921   0.316
  222WAT     H2 1069   3.769   3.971   0.272
  223WAT      O 1070   0.765   3.226   2.751
  223WAT     H1 1071   0.786   3.244   2.659
  223WAT     H2 1072   0.845   3.189   2.787
  224WAT      O 1073   7.498   0.667   1.935
  224WAT     H1 1074   7.491   0.672   1.840
  224WAT     H2 1075   7.507   0.758   1.964
  225WAT      O 1076   0.468   2.641   0.022
  225WAT     H1 1077   0.556   2.673   0.004
  225WAT     H2 1078   0.421   2.650  -0.061
  226WAT      O 1079   0.283   2.237   4.552
  226WAT     H1 1080   0.248   2.218   4.465
  226WAT     H2 1081   0.368   2.195   4.554
  227WAT      O 1082   2.419   2.995   0.618
  227WAT     H1 1083   2.485   2.948   0.566
  227WAT     H2 1084   2.351   3.017   0.554
  228WAT      O 1085   5.621   6.669   4.872
  228WAT     H1 1086   5.582   6.656   4.785
  228WAT     H2 1087   5.713   6.648   4.860
  229WAT      O 1088   1.398   2.323   5.036
  229WAT     H1 1089   1.433   2.413   5.029
  229WAT     H2 1090   1.476   2.267   5.031
  230WAT      O 1091   6.122   4.389   1.336
  230WAT     H1 1092   6.096   4.380   1.245
  230WAT     H2 1093   6.167   4.474   1.340
  231WAT      O 1094   7.314   0.019   3.481
  231WAT     H1 1095   7.332   0.076   3.406
  231WAT     H2 1096   7.256   0.071   3.537
  232WAT      O 1097   6.108   2.344   4.480
  232WAT     H1 1098   6.128   2.285   4.407
  232WAT     H2 1099   6.048   2.409   4.443
  233WAT      O 1100   5.649   1.234   1.617
  233WAT     H1 1101   5.572   1.184   1.589
  233WAT     H2 1102   5.634   1.323   1.585
  234WAT      O 1103   6.555   4.279   2.392
  234WAT     H1 1104   6.488   4.324   2.340
  234WAT     H2 1105   6.583   4.344   2.456
  235WAT      O 1106   0.009   2.789   4.559
  235WAT     H1 1107  -0.079   2.819   4.540
  235WAT     H2 1108   0.060   2.815   4.482
  236WAT      O 1109   4.493   5.007   0.373
  236WAT     H1 1110   4.555   4.935   0.363
  236WAT     H2 1111   4.439   5.004   0.294
  237WAT      O 1112   6.950   3.125   2.275
  237WAT     H1 1113   6.997   3.209   2.273
  237WAT     H2 1114   7.018   3.059   2.264
  238WAT      O 1115   5.616   0.398   3.049
  238WAT     H1 1116   5.571   0.479   3.075
  238WAT     H2 1117   5.620   0.402   2.954
  239WAT      O 1118   4.792   5.032   3.495
  239WAT     H1 1119   4.733   5.108   3.488
  239WAT     H2 1120   4.806   5.004   3.405
  240WAT      O 1121   3.861   2.998   2.948
  240WAT     H1 1122   3.771   2.966   2.958
  240WAT     H2 1123   3.890   2.966   2.863
  241WAT      O 1124   3.241   5.880   3.683
  241WAT     H1 1125   3.219   5.849   3.595
  241WAT     H2 1126   3.209   5.811   3.742
  242WAT      O 1127   3.220   3.707   1.713
  242WAT     H1 1128   3.302   3.755   1.701
  242WAT     H2 1129   3.156   3.773   1.738
  243WAT      O 1130   6.649   5.148   0.849
  243WAT     H1 1131   6.600   5.203   0.788
  243WAT     H2 1132   6.645   5.061   0.811
  244WAT      O 1133   0.865   2.924   1.829
  244WAT     H1 1134   0.790   2.901   1.774
  244WAT     H2 1135   0.928   2.963   1.769
  245WAT      O 1136   2.199   3.741   0.402
  245WAT     H1 1137   2.287   3.716   0.429
  245WAT     H2 1138   2.210   3.784   0.318
  246WAT      O 1139   5.517   6.155   3.657
  246WAT     H1 1140   5.494   6.209   3.733
  246WAT     H2 1141   5.591   6.102   3.686
  247WAT      O 1142   6.782   1.433   0.083
  247WAT     H1 1143   6.863   1.383   0.069
  247WAT     H2 1144   6.812   1.522   0.101
  248WAT      O 1145   1.570   4.028   0.417
  248WAT     H1 1146   1.520   3.985   0.348
  248WAT     H2 1147   1.521   4.107   0.437
  249WAT      O 1148   1.000   2.578   0.867
  249WAT     H1 1149   1.010   2.490   0.830
  249WAT     H2 1150   0.915   2.608   0.834
  250WAT      O 1151   7.109   6.445   3.083
  250WAT     H1 1152   7.018   6.424   3.060
  250WAT     H2 1153   7.143   6.492   3.007
  251WAT      O 1154   1.330   2.399   3.094
  251WAT     H1 1155   1.282   2.318   3.113
  251WAT     H2 1156   1.266   2.455   3.050
  252WAT      O 1157   1.041   2.982   6.214
  252WAT     H1 1158   1.033   2.912   6.149
  252WAT     H2 1159   0.984   3.052   6.183
  253WAT      O 1160   4.050   5.821   5.474
  253WAT     H1 1161   4.104   5.899   5.466
  253WAT     H2 1162   4.102   5.751   5.435
  254WAT      O 1163   7.026   5.840   5.156
  254WAT     H1 1164   6.953   5.822   5.096
  254WAT     H2 1165   7.021   5.935   5.170
  255WAT      O 1166   1.322   0.877   4.249
  255WAT     H1 1167   1.294   0.796   4.207
  255WAT     H2 1168   1.275   0.946   4.202
  256WAT      O 1169   1.864   0.594   2.478
  256WAT     H1 1170   1.771   0.577   2.466
  256WAT     H2 1171   1.868   0.683   2.514
  257WAT      O 1172   0.010   2.865   0.225
  257WAT     H1 1173   0.105   2.877   0.223
  257WAT     H2 1174  -0.008   2.806   0.152
  258WAT      O 1175   1.302   1.034   0.211
  258WAT     H1 1176   1.325   1.017   0.119
  258WAT     H2 1177   1.251   0.957   0.237
  259WAT      O 1178   0.340   2.367   2.939
  259WAT     H1 1179   0.271   2.387   2.875
  259WAT     H2 1180   0.347   2.272   2.937
  260WAT      O 1181   7.312   7.158   5.939
  260WAT     H1 1182   7.255   7.218   5.891
  260WAT     H2 1183   7.252   7.095   5.979
  261WAT      O 1184   3.351   6.126   5.161
  261WAT     H1 1185   3.332   6.220   5.164
  261WAT     H2 1186   3.441   6.121   5.128
  262WAT      O 1187   3.796   6.751   0.611
  262WAT     H1 1188   3.704   6.773   0.620
  262WAT     H2 1189   3.842   6.820   0.660
  263WAT      O 1190   2.543   1.873   3.231
  263WAT     H1 1191   2.455   1.844   3.207
  263WAT     H2 1192   2.600   1.831   3.167
  264WAT      O 1193   5.977   4.022   3.420
  264WAT     H1 1194   5.964   4.053   3.330
  264WAT     H2 1195   5.925   3.942   3.425
  265WAT      O 1196   3.905   5.016   5.788
  265WAT     H1 1197   3.880   5.059   5.870
  265WAT     H2 1198   3.985   4.968   5.811
  266WAT      O 1199   1.647   3.062   5.192
  266WAT     H1 1200   1.648   2.988   5.252
  266WAT     H2 1201   1.573   3.046   5.134
  267WAT      O 1202   4.932   1.161   0.643
  267WAT     H1 1203   4.972   1.244   0.667
  267WAT     H2 1204   4.991   1.094   0.677
  268WAT      O 1205   0.666   2.844   4.776
  268WAT     H1 1206   0.626   2.922   4.814
  268WAT     H2 1207   0.686   2.788   4.852
  269WAT      O 1208   4.211   4.882   1.505
  269WAT     H1 1209   4.124   4.904   1.471
  269WAT     H2 1210   4.214   4.925   1.591
  270WAT      O 1211   1.019   0.729   6.172
  270WAT     H1 1212   0.976   0.668   6.111
  270WAT     H2 1213   1.096   0.760   6.125
  271WAT      O 1214   2.630   2.070   0.238
  271WAT     H1 1215   2.615   1.982   0.272
  271WAT     H2 1216   2.580   2.073   0.157
  272WAT      O 1217   2.620   6.563   5.034
  272WAT     H1 1218   2.715   6.573   5.037
  272WAT     H2 1219   2.587   6.648   5.003
  273WAT      O 1220   4.990   3.239   4.697
  273WAT     H1 1221   4.911   3.206   4.654
  273WAT     H2 1222   5.059   3.178   4.672
  274WAT      O 1223   3.772   1.886   2.117
  274WAT     H1 1224   3.720   1.952   2.162
  274WAT     H2 1225   3.846   1.934   2.081
  275WAT      O 1226   0.270   6.662   4.852
  275WAT     H1 1227   0.364   6.678   4.846
  275WAT     H2 1228   0.235   6.694   4.768
  276WAT      O 1229   0.281   0.147   3.101
  276WAT     H1 1230   0.300   0.217   3.039
  276WAT     H2 1231   0.190   0.122   3.082
  277WAT      O 1232   4.231   5.198   0.874
  277WAT     H1 1233   4.140   5.216   0.849
  277WAT     H2 1234   4.244   5.105   0.854
  278WAT      O 1235   0.652   4.924   5.453
  278WAT     H1 1236   0.649   4.953   5.361
  278WAT     H2 1237   0.699   4.841   5.450
  279WAT      O 1238   1.224   1.905   1.131
  279WAT     H1 1239   1.311   1.867   1.140
  279WAT     H2 1240   1.237   1.981   1.074
  280WAT      O 1241   0.549   4.189   5.437
  280WAT     H1 1242   0.487   4.164   5.505
  280WAT     H2 1243   0.560   4.109   5.385
  281WAT      O 1244   0.055   1.584   3.723
  281WAT     H1 1245  -0.020   1.634   3.693
  281WAT     H2 1246   0.117   1.649   3.755
  282WAT      O 1247   1.632   3.606   1.937
  282WAT     H1 1248   1.666   3.608   1.848
  282WAT     H2 1249   1.709   3.614   1.993
  283WAT      O 1250   2.975   7.093   4.106
  283WAT     H1 1251   2.977   7.060   4.016
  283WAT     H2 1252   3.029   7.172   4.104
  284WAT      O 1253   5.480   3.206   5.294
  284WAT     H1 1254   5.440   3.126   5.328
  284WAT     H2 1255   5.448   3.213   5.204
  285WAT      O 1256   4.377   4.078   3.940
  285WAT     H1 1257   4.406   4.131   3.866
  285WAT     H2 1258   4.358   3.992   3.902
  286WAT      O 1259   2.116   3.010   1.757
  286WAT     H1 1260   2.138   2.954   1.682
  286WAT     H2 1261   2.027   3.041   1.737
  287WAT      O 1262   1.038   1.244   1.966
  287WAT     H1 1263   1.066   1.270   1.878
  287WAT     H2 1264   0.943   1.239   1.960
  288WAT      O 1265   0.940   2.060   5.884
  288WAT     H1 1266   0.886   2.046   5.806
  288WAT     H2 1267   1.025   2.020   5.862
  289WAT      O 1268   5.713   6.899   1.187
  289WAT     H1 1269   5.805   6.910   1.211
  289WAT     H2 1270   5.670   6.977   1.222
  290WAT      O 1271   6.101   1.329   1.791
  290WAT     H1 1272   6.075   1.358   1.878
  290WAT     H2 1273   6.028   1.352   1.735
  291WAT      O 1274   1.224   4.413   2.861
  291WAT     H1 1275   1.219   4.396   2.955
  291WAT     H2 1276   1.144   4.373   2.825
  292WAT      O 1277   7.104   3.484   0.595
  292WAT     H1 1278   7.098   3.559   0.535
  292WAT     H2 1279   7.131   3.522   0.678
  293WAT      O 1280   1.155   4.143   2.680
  293WAT     H1 1281   1.095   4.086   2.633
  293WAT     H2 1282   1.237   4.137   2.632
  294WAT      O 1283   1.722   2.453   5.769
  294WAT     H1 1284   1.654   2.479   5.706
  294WAT     H2 1285   1.716   2.357   5.771
  295WAT      O 1286   6.101   0.457   6.057
  295WAT     H1 1287   6.190   0.425   6.040
  295WAT     H2 1288   6.112   0.527   6.121
  296WAT      O 1289   1.113   5.967   5.818
  296WAT     H1 1290   1.076   5.920   5.744
  296WAT     H2 1291   1.076   6.055   5.812
  297WAT      O 1292   4.547   7.162   2.590
  297WAT     H1 1293   4.528   7.233   2.652
  297WAT     H2 1294   4.466   7.112   2.584
  298WAT      O 1295   2.797   0.488   3.804
  298WAT     H1 1296   2.735   0.556   3.775
  298WAT     H2 1297   2.846   0.530   3.875
  299WAT      O 1298   1.679   5.582   3.611
  299WAT     H1 1299   1.618   5.625   3.552
  299WAT     H2 1300   1.652   5.611   3.699
  300WAT      O 1301   5.361   4.939   6.208
  300WAT     H1 1302   5.432   4.984   6.162
  300WAT     H2 1303   5.287   4.943   6.147
  301WAT      O 1304   1.899   1.806   2.246
  301WAT     H1 1305   1.982   1.765   2.268
  301WAT     H2 1306   1.919   1.868   2.176
  302WAT      O 1307   0.420   4.393   1.862
  302WAT     H1 1308   0.411   4.307   1.822
  302WAT     H2 1309   0.330   4.426   1.867
  303WAT      O 1310   6.076   1.301   6.006
  303WAT     H1 1311   6.044   1.384   5.970
  303WAT     H2 1312   5.996   1.253   6.029
  304WAT      O 1313   4.295   1.822   5.820
  304WAT     H1 1314   4.208   1.822   5.859
  304WAT     H2 1315   4.279   1.804   5.727
  305WAT      O 1316   3.345   3.972   0.797
  305WAT     H1 1317   3.358   3.944   0.887
  305WAT     H2 1318   3.261   4.019   0.799
  306WAT      O 1319   1.150   2.435   0.375
  306WAT     H1 1320   1.113   2.461   0.291
  306WAT     H2 1321   1.094   2.363   0.405
  307WAT      O 1322   7.432   2.240   6.036
  307WAT     H1 1323   7.387   2.306   5.984
  307WAT     H2 1324   7.363   2.196   6.085
  308WAT      O 1325   2.964   6.734   0.949
  308WAT     H1 1326   2.949   6.640   0.940
  308WAT     H2 1327   2.904   6.762   1.018
  309WAT      O 1328   6.871   6.159   0.938
  309WAT     H1 1329   6.915   6.239   0.966
  309WAT     H2 1330   6.849   6.114   1.020
  310WAT      O 1331   1.222   1.518   2.327
  310WAT     H1 1332   1.184   1.599   2.293
  310WAT     H2 1333   1.155   1.483   2.386
  311WAT      O 1334   6.230   2.370   5.481
  311WAT     H1 1335   6.220   2.373   5.576
  311WAT     H2 1336   6.151   2.411   5.447
  312WAT      O 1337   2.213   3.541   5.412
  312WAT     H1 1338   2.160   3.467   5.385
  312WAT     H2 1339   2.267   3.507   5.484
  313WAT      O 1340   3.718   1.146   5.341
  313WAT     H1 1341   3.728   1.119   5.432
  313WAT     H2 1342   3.661   1.223   5.345
  314WAT      O 1343   4.521   3.127   6.014
  314WAT     H1 1344   4.518   3.052   5.954
  314WAT     H2 1345   4.537   3.202   5.956
  315WAT      O 1346   2.825   1.241   2.255
  315WAT     H1 1347   2.816   1.148   2.235
  315WAT     H2 1348   2.902   1.246   2.311
  316WAT      O 1349   2.213   6.141   3.716
  316WAT     H1 1350   2.164   6.214   3.757
  316WAT     H2 1351   2.157   6.113   3.644
  317WAT      O 1352   5.910   2.500   5.721
  317WAT     H1 1353   5.980   2.436   5.710
  317WAT     H2 1354   5.848   2.481   5.650
  318WAT      O 1355   0.468   6.818   1.830
  318WAT     H1 1356   0.379   6.799   1.859
  318WAT     H2 1357   0.466   6.801   1.736
  319WAT      O 1358   0.268   4.461   0.089
  319WAT     H1 1359   0.230   4.425   0.008
  319WAT     H2 1360   0.199   4.449   0.154
  320WAT      O 1361   7.153   2.194   6.075
  320WAT     H1 1362   7.076   2.187   6.019
  320WAT     H2 1363   7.121   2.177   6.163
  321WAT      O 1364   0.191   0.923   0.634
  321WAT     H1 1365   0.285   0.903   0.635
  321WAT     H2 1366   0.155   0.865   0.567
  322WAT      O 1367   5.688   0.594   3.895
  322WAT     H1 1368   5.635   0.636   3.828
  322WAT     H2 1369   5.778   0.617   3.873
  323WAT      O 1370   6.267   5.384   3.159
  323WAT     H1 1371   6.244   5.410   3.070
  323WAT     H2 1372   6.193   5.415   3.212
  324WAT      O 1373   6.081   3.053   2.833
  324WAT     H1 1374   6.139   3.096   2.769
  324WAT     H2 1375   5.994   3.060   2.795
  325WAT      O 1376   7.081   3.922   5.050
  325WAT     H1 1377   7.142   3.915   4.977
  325WAT     H2 1378   7.002   3.961   5.012
  326WAT      O 1379   0.017   3.318   5.356
  326WAT     H1 1380   0.071   3.286   5.428
  326WAT     H2 1381  -0.018   3.240   5.315
  327WAT      O 1382   0.366   2.592   2.728
  327WAT     H1 1383   0.313   2.577   2.649
  327WAT     H2 1384   0.452   2.556   2.705
  328WAT      O 1385   4.118   3.963   0.609
  328WAT     H1 1386   4.176   3.922   0.673
  328WAT     H2 1387   4.178   4.000   0.544
  329WAT      O 1388   4.761   6.062   0.188
  329WAT     H1 1389   4.760   6.088   0.096
  329WAT     H2 1390   4.671   6.077   0.218
  330WAT      O 1391   4.427   2.075   3.062
  330WAT     H1 1392   4.386   1.991   3.040
  330WAT     H2 1393   4.507   2.076   3.009
  331WAT      O 1394   0.292   0.202   1.629
  331WAT     H1 1395   0.383   0.225   1.614
  331WAT     H2 1396   0.264   0.161   1.547
  332WAT      O 1397   5.653   7.175   4.668
  332WAT     H1 1398   5.641   7.082   4.646
  332WAT     H2 1399   5.593   7.190   4.742
  333WAT      O 1400   6.623   6.812   5.494
  333WAT     H1 1401   6.632   6.757   5.416
  333WAT     H2 1402   6.566   6.884   5.466
  334WAT      O 1403   0.339   4.641   4.548
  334WAT     H1 1404   0.272   4.625   4.481
  334WAT     H2 1405   0.380   4.723   4.522
  335WAT      O 1406   6.872   4.171   4.312
  335WAT     H1 1407   6.783   4.148   4.338
  335WAT     H2 1408   6.900   4.099   4.255
  336WAT      O 1409   2.003   6.221   0.958
  336WAT     H1 1410   1.948   6.258   0.888
  336WAT     H2 1411   2.000   6.288   1.027
  337WAT      O 1412   0.864   0.103   2.794
  337WAT     H1 1413   0.904   0.102   2.707
  337WAT     H2 1414   0.890   0.187   2.832
  338WAT      O 1415   4.064   4.837   2.722
  338WAT     H1 1416   3.997   4.773   2.745
  338WAT     H2 1417   4.046   4.857   2.630
  339WAT      O 1418   4.022   3.825   2.843
  339WAT     H1 1419   4.026   3.919   2.828
  339WAT     H2 1420   3.929   3.804   2.838
  340WAT      O 1421   7.200   1.558   2.421
  340WAT     H1 1422   7.186   1.651   2.435
  340WAT     H2 1423   7.162   1.541   2.334
  341WAT      O 1424   1.950   2.597   5.768
  341WAT     H1 1425   2.031   2.567   5.727
  341WAT     H2 1426   1.906   2.517   5.795
  342WAT      O 1427   1.257   0.637   0.657
  342WAT     H1 1428   1.189   0.573   0.678
  342WAT     H2 1429   1.245   0.706   0.722
  343WAT      O 1430   0.830   6.817   6.160
  343WAT     H1 1431   0.821   6.725   6.184
  343WAT     H2 1432   0.922   6.838   6.178
  344WAT      O 1433   6.799   3.619   0.422
  344WAT     H1 1434   6.890   3.644   0.435
  344WAT     H2 1435   6.753   3.654   0.498
  345WAT      O 1436   7.071   1.509   1.318
  345WAT     H1 1437   7.159   1.518   1.355
  345WAT     H2 1438   7.039   1.427   1.355
  346WAT      O 1439   6.618   1.114   5.636
  346WAT     H1 1440   6.538   1.151   5.673
  346WAT     H2 1441   6.620   1.145   5.546
  347WAT      O 1442   6.581   6.615   5.278
  347WAT     H1 1443   6.535   6.662   5.209
  347WAT     H2 1444   6.637   6.553   5.231
  348WAT      O 1445   7.367   5.613   3.621
  348WAT     H1 1446   7.440   5.583   3.567
  348WAT     H2 1447   7.313   5.666   3.562
  349WAT      O 1448   1.882   6.758   6.095
  349WAT     H1 1449   1.953   6.780   6.035
  349WAT     H2 1450   1.905   6.801   6.177
  350WAT      O 1451   0.158   4.847   1.691
  350WAT     H1 1452   0.068   4.882   1.695
  350WAT     H2 1453   0.163   4.804   1.606
  351WAT      O 1454   2.569   1.268   3.011
  351WAT     H1 1455   2.601   1.357   2.999
  351WAT     H2 1456   2.510   1.254   2.937
  352WAT      O 1457   2.520   2.478   3.881
  352WAT     H1 1458   2.558   2.561   3.852
  352WAT     H2 1459   2.492   2.436   3.800
  353WAT      O 1460   2.565   5.654   6.210
  353WAT     H1 1461   2.500   5.588   6.232
  353WAT     H2 1462   2.630   5.608   6.156
  354WAT      O 1463   0.334   6.670   0.683
  354WAT     H1 1464   0.287   6.678   0.600
  354WAT     H2 1465   0.295   6.593   0.724
  355WAT      O 1466   2.028   5.563   4.721
  355WAT     H1 1467   1.933   5.559   4.718
  355WAT     H2 1468   2.057   5.472   4.721
  356WAT      O 1469   6.849   2.497   6.098
  356WAT     H1 1470   6.864   2.423   6.039
  356WAT     H2 1471   6.921   2.557   6.080
  357WAT      O 1472   5.089   1.016   2.940
  357WAT     H1 1473   5.001   1.000   2.908
  357WAT     H2 1474   5.144   0.954   2.892
  358WAT      O 1475   6.595   1.942   4.072
  358WAT     H1 1476   6.610   2.017   4.014
  358WAT     H2 1477   6.502   1.922   4.062
  359WAT      O 1478   5.161   6.109   4.135
  359WAT     H1 1479   5.214   6.177   4.177
  359WAT     H2 1480   5.118   6.064   4.208
  360WAT      O 1481   3.419   5.478   4.831
  360WAT     H1 1482   3.415   5.535   4.754
  360WAT     H2 1483   3.509   5.484   4.862
  361WAT      O 1484   1.551   6.919   2.828
  361WAT     H1 1485   1.543   6.993   2.767
  361WAT     H2 1486   1.597   6.955   2.904
  362WAT      O 1487   3.061   0.802   0.254
  362WAT     H1 1488   3.155   0.788   0.265
  362WAT     H2 1489   3.028   0.716   0.227
  363WAT      O 1490   5.078   1.213   3.450
  363WAT     H1 1491   5.016   1.277   3.415
  363WAT     H2 1492   5.126   1.182   3.373
  364WAT      O 1493   1.529   1.782   2.496
  364WAT     H1 1494   1.554   1.798   2.586
  364WAT     H2 1495   1.604   1.738   2.457
  365WAT      O 1496   4.358   1.405   3.672
  365WAT     H1 1497   4.308   1.354   3.609
  365WAT     H2 1498   4.402   1.472   3.619
  366WAT      O 1499   1.680   5.845   2.518
  366WAT     H1 1500   1.587   5.831   2.503
  366WAT     H2 1501   1.707   5.903   2.447
  367WAT      O 1502   4.498   2.330   4.000
  367WAT     H1 1503   4.461   2.418   4.005
  367WAT     H2 1504   4.572   2.331   4.061
  368WAT      O 1505   5.932   5.090   3.816
  368WAT     H1 1506   5.879   5.013   3.839
  368WAT     H2 1507   5.871   5.149   3.772
  369WAT      O 1508   5.052   5.729   4.551
  369WAT     H1 1509   5.002   5.717   4.471
  369WAT     H2 1510   4.992   5.706   4.622
  370WAT      O 1511   0.697   3.603   4.620
  370WAT     H1 1512   0.657   3.544   4.683
  370WAT     H2 1513   0.746   3.547   4.561
  371WAT      O 1514   4.343   3.369   3.141
  371WAT     H1 1515   4.406   3.356   3.212
  371WAT     H2 1516   4.396   3.395   3.066
  372WAT      O 1517   4.448   1.673   5.347
  372WAT     H1 1518   4.435   1.701   5.256
  372WAT     H2 1519   4.516   1.731   5.381
  373WAT      O 1520   5.700   1.599   6.092
  373WAT     H1 1521   5.765   1.587   6.160
  373WAT     H2 1522   5.748   1.637   6.018
  374WAT      O 1523   5.781   0.159   4.061
  374WAT     H1 1524   5.833   0.239   4.049
  374WAT     H2 1525   5.814   0.099   3.994
  375WAT      O 1526   7.525   6.450   5.218
  375WAT     H1 1527   7.434   6.476   5.202
  375WAT     H2 1528   7.576   6.527   5.194
  376WAT      O 1529   5.458   0.261   6.095
  376WAT     H1 1530   5.462   0.260   6.000
  376WAT     H2 1531   5.379   0.211   6.117
  377WAT      O 1532   5.669   7.190   0.976
  377WAT     H1 1533   5.711   7.238   1.048
  377WAT     H2 1534   5.738   7.176   0.912
  378WAT      O 1535   0.108   4.855   3.578
  378WAT     H1 1536   0.172   4.784   3.585
  378WAT     H2 1537   0.025   4.811   3.560
  379WAT      O 1538   1.911   3.096   5.879
  379WAT     H1 1539   1.869   3.012   5.860
  379WAT     H2 1540   1.866   3.159   5.823
  380WAT      O 1541   6.989   2.953   3.266
  380WAT     H1 1542   7.036   2.872   3.245
  380WAT     H2 1543   7.029   2.984   3.347
  381WAT      O 1544   6.242   4.759   4.492
  381WAT     H1 1545   6.208   4.712   4.568
  381WAT     H2 1546   6.166   4.772   4.436
  382WAT      O 1547   5.477   5.179   2.333
  382WAT     H1 1548   5.414   5.248   2.311
  382WAT     H2 1549   5.423   5.108   2.369
  383WAT      O 1550   4.260   4.131   0.411
  383WAT     H1 1551   4.223   4.213   0.445
  383WAT     H2 1552   4.223   4.123   0.323
  384WAT      O 1553   4.154   6.405   2.978
  384WAT     H1 1554   4.118   6.342   3.040
  384WAT     H2 1555   4.093   6.479   2.979
  385WAT      O 1556   2.809   4.804   0.850
  385WAT     H1 1557   2.745   4.741   0.882
  385WAT     H2 1558   2.863   4.754   0.788
  386WAT      O 1559   0.901   5.262   3.634
  386WAT     H1 1560   0.869   5.337   3.583
  386WAT     H2 1561   0.890   5.187   3.575
  387WAT      O 1562   2.315   4.462   1.342
  387WAT     H1 1563   2.270   4.383   1.315
  387WAT     H2 1564   2.275   4.486   1.425
  388WAT      O 1565   4.720   6.085   4.165
  388WAT     H1 1566   4.763   6.124   4.241
  388WAT     H2 1567   4.782   6.097   4.094
  389WAT      O 1568   0.541   2.579   1.715
  389WAT     H1 1569   0.462   2.594   1.664
  389WAT     H2 1570   0.554   2.484   1.712
  390WAT      O 1571   2.575   4.845   4.568
  390WAT     H1 1572   2.640   4.886   4.624
  390WAT     H2 1573   2.550   4.914   4.506
  391WAT      O 1574   6.236   2.368   1.758
  391WAT     H1 1575   6.288   2.392   1.681
  391WAT     H2 1576   6.300   2.364   1.829
  392WAT      O 1577   0.869   1.029   4.068
  392WAT     H1 1578   0.785   1.072   4.081
  392WAT     H2 1579   0.855   0.939   4.097
  393WAT      O 1580   4.170   0.225   4.854
  393WAT     H1 1581   4.108   0.158   4.824
  393WAT     H2 1582   4.141   0.305   4.809
  394WAT      O 1583   6.134   3.516   5.180
  394WAT     H1 1584   6.058   3.569   5.206
  394WAT     H2 1585   6.203   3.580   5.165
  395WAT      O 1586   1.397   3.430   4.414
  395WAT     H1 1587   1.405   3.482   4.334
  395WAT     H2 1588   1.349   3.351   4.387
  396WAT      O 1589   5.847   3.088   2.647
  396WAT     H1 1590   5.770   3.114   2.699
  396WAT     H2 1591   5.878   3.170   2.609
  397WAT      O 1592   6.351   6.789   2.773
  397WAT     H1 1593   6.260   6.819   2.772
  397WAT     H2 1594   6.383   6.805   2.684
  398WAT      O 1595   0.354   6.003   2.493
  398WAT     H1 1596   0.268   6.015   2.453
  398WAT     H2 1597   0.415   6.008   2.420
  399WAT      O 1598   2.646   3.771   6.130
  399WAT     H1 1599   2.592   3.709   6.081
  399WAT     H2 1600   2.609   3.857   6.110
  400WAT      O 1601   4.292   5.165   3.880
  400WAT     H1 1602   4.333   5.089   3.921
  400WAT     H2 1603   4.342   5.178   3.798
  401WAT      O 1604   2.662   5.689   0.769
  401WAT     H1 1605   2.706   5.726   0.693
  401WAT     H2 1606   2.576   5.729   0.769
  402WAT      O 1607   2.628   4.601   5.638
  402WAT     H1 1608   2.709   4.594   5.690
  402WAT     H2 1609   2.647   4.669   5.573
  403WAT      O 1610   7.469   1.672   3.588
  403WAT     H1 1611   7.421   1.754   3.593
  403WAT     H2 1612   7.402   1.604   3.580
  404WAT      O 1613   1.760   3.710   1.246
  404WAT     H1 1614   1.802   3.648   1.187
  404WAT     H2 1615   1.756   3.664   1.330
  405WAT      O 1616   5.550   1.304   1.314
  405WAT     H1 1617   5.635   1.260   1.310
  405WAT     H2 1618   5.499   1.263   1.243
  406WAT      O 1619   5.664   5.463   3.789
  406WAT     H1 1620   5.760   5.460   3.792
  406WAT     H2 1621   5.641   5.541   3.839
  407WAT      O 1622   6.457   6.418   3.298
  407WAT     H1 1623   6.505   6.336   3.289
  407WAT     H2 1624   6.512   6.472   3.354
  408WAT      O 1625   0.699   3.393   5.631
  408WAT     H1 1626   0.753   3.453   5.579
  408WAT     H2 1627   0.609   3.421   5.614
  409WAT      O 1628   3.901   1.096   3.088
  409WAT     H1 1629   3.834   1.158   3.118
  409WAT     H2 1630   3.864   1.057   3.009
  410WAT      O 1631   3.491   4.277   0.306
  410WAT     H1 1632   3.584   4.258   0.318
  410WAT     H2 1633   3.489   4.363   0.266
  411WAT      O 1634   2.200   6.623   0.258
  411WAT     H1 1635   2.146   6.635   0.180
  411WAT     H2 1636   2.217   6.712   0.288
  412WAT      O 1637   0.345   5.318   4.516
  412WAT     H1 1638   0.329   5.321   4.422
  412WAT     H2 1639   0.311   5.401   4.549
  413WAT      O 1640   6.016   3.758   2.302
  413WAT     H1 1641   6.050   3.753   2.391
  413WAT     H2 1642   6.046   3.677   2.260
  414WAT      O 1643   0.964   4.609   0.989
  414WAT     H1 1644   1.025   4.657   1.046
  414WAT     H2 1645   0.891   4.669   0.975
  415WAT      O 1646   2.162   4.089   5.670
  415WAT     H1 1647   2.168   4.036   5.591
  415WAT     H2 1648   2.156   4.179   5.639
  416WAT      O 1649   3.899   1.999   6.222
  416WAT     H1 1650   3.864   2.042   6.144
  416WAT     H2 1651   3.993   1.993   6.205
  417WAT      O 1652   5.449   0.843   5.226
  417WAT     H1 1653   5.540   0.856   5.251
  417WAT     H2 1654   5.413   0.786   5.295
  418WAT      O 1655   7.461   6.010   1.227
  418WAT     H1 1656   7.545   5.971   1.202
  418WAT     H2 1657   7.443   6.074   1.158
  419WAT      O 1658   3.534   6.447   5.981
  419WAT     H1 1659   3.503   6.439   5.891
  419WAT     H2 1660   3.600   6.378   5.990
  420WAT      O 1661   5.804   3.658   4.100
  420WAT     H1 1662   5.753   3.581   4.126
  420WAT     H2 1663   5.877   3.623   4.050
  421WAT      O 1664   3.233   5.841   0.367
  421WAT     H1 1665   3.255   5.755   0.401
  421WAT     H2 1666   3.308   5.865   0.311
  422WAT      O 1667   5.140   4.672   4.178
  422WAT     H1 1668   5.179   4.655   4.092
  422WAT     H2 1669   5.056   4.713   4.159
  423WAT      O 1670   0.134   2.109   2.306
  423WAT     H1 1671   0.123   2.157   2.224
  423WAT     H2 1672   0.190   2.166   2.360
  424WAT      O 1673   6.190   1.785   5.109
  424WAT     H1 1674   6.113   1.729   5.114
  424WAT     H2 1675   6.232   1.759   5.027
  425WAT      O 1676   7.390   2.218   3.478
  425WAT     H1 1677   7.344   2.299   3.500
  425WAT     H2 1678   7.325   2.150   3.490
  426WAT      O 1679   5.474   6.829   5.341
  426WAT     H1 1680   5.379   6.844   5.336
  426WAT     H2 1681   5.482   6.738   5.369
  427WAT      O 1682   0.688   4.994   1.336
  427WAT     H1 1683   0.634   5.057   1.385
  427WAT     H2 1684   0.626   4.950   1.277
  428WAT      O 1685   7.009   2.346   3.616
  428WAT     H1 1686   7.042   2.422   3.567
  428WAT     H2 1687   6.947   2.304   3.557
  429WAT      O 1688   5.687   5.270   1.056
  429WAT     H1 1689   5.680   5.243   0.964
  429WAT     H2 1690   5.773   5.313   1.061
  430WAT      O 1691   4.053   0.197   2.929
  430WAT     H1 1692   3.960   0.215   2.920
  430WAT     H2 1693   4.065   0.173   3.021
  431WAT      O 1694   7.214   5.788   3.440
  431WAT     H1 1695   7.119   5.793   3.426
  431WAT     H2 1696   7.244   5.879   3.430
  432WAT      O 1697   5.488   0.781   4.015
  432WAT     H1 1698   5.428   0.795   3.941
  432WAT     H2 1699   5.574   0.774   3.975
  433WAT      O 1700   4.703   1.859   0.117
  433WAT     H1 1701   4.651   1.779   0.120
  433WAT     H2 1702   4.792   1.830   0.099
  434WAT      O 1703   7.630   4.929   1.061
  434WAT     H1 1704   7.637   5.022   1.039
  434WAT     H2 1705   7.687   4.885   0.998
  435WAT      O 1706   0.759   5.332   5.468
  435WAT     H1 1707   0.696   5.330   5.396
  435WAT     H2 1708   0.832   5.277   5.438
  436WAT      O 1709   1.805   2.648   4.079
  436WAT     H1 1710   1.889   2.615   4.047
  436WAT     H2 1711   1.804   2.625   4.172
  437WAT      O 1712   2.238   4.209   0.071
  437WAT     H1 1713   2.186   4.283   0.102
  437WAT     H2 1714   2.198   4.132   0.112
  438WAT      O 1715   2.368   5.349   4.693
  438WAT     H1 1716   2.399   5.410   4.625
  438WAT     H2 1717   2.272   5.357   4.689
  439WAT      O 1718   6.540   3.568   3.891
  439WAT     H1 1719   6.536   3.661   3.868
  439WAT     H2 1720   6.592   3.529   3.821
  440WAT      O 1721   7.560   4.802   0.064
  440WAT     H1 1722   7.623   4.782  -0.006
  440WAT     H2 1723   7.534   4.716   0.098
  441WAT      O 1724   5.896   1.128   3.028
  441WAT     H1 1725   5.825   1.143   2.965
  441WAT     H2 1726   5.857   1.072   3.095
  442WAT      O 1727   6.927   4.589   2.492
  442WAT     H1 1728   6.933   4.591   2.588
  442WAT     H2 1729   6.961   4.674   2.464
  443WAT      O 1730   5.562   1.381   2.797
  443WAT     H1 1731   5.530   1.444   2.861
  443WAT     H2 1732   5.509   1.398   2.719
  444WAT      O 1733   5.883   1.200   6.162
  444WAT     H1 1734   5.825   1.145   6.110
  444WAT     H2 1735   5.891   1.155   6.247
  445WAT      O 1736   0.732   4.151   2.587
  445WAT     H1 1737   0.711   4.214   2.518
  445WAT     H2 1738   0.738   4.204   2.666
  446WAT      O 1739   5.668   5.306   4.550
  446WAT     H1 1740   5.640   5.231   4.603
  446WAT     H2 1741   5.699   5.370   4.614
  447WAT      O 1742   7.374   0.522   4.980
  447WAT     H1 1743   7.450   0.467   4.960
  447WAT     H2 1744   7.311   0.462   5.020
  448WAT      O 1745   3.741   5.308   5.939
  448WAT     H1 1746   3.708   5.398   5.937
  448WAT     H2 1747   3.783   5.296   5.854
  449WAT      O 1748   0.358   0.953   3.983
  449WAT     H1 1749   0.422   0.884   3.997
  449WAT     H2 1750   0.363   0.972   3.890
  450WAT      O 1751   5.090   0.989   3.640
  450WAT     H1 1752   5.133   0.917   3.594
  450WAT     H2 1753   5.078   1.056   3.573
  451WAT      O 1754   2.493   2.232   0.810
  451WAT     H1 1755   2.583   2.204   0.792
  451WAT     H2 1756   2.498   2.282   0.891
  452WAT      O 1757   1.449   4.555   2.777
  452WAT     H1 1758   1.370   4.510   2.807
  452WAT     H2 1759   1.513   4.542   2.847
  453WAT      O 1760   0.450   7.007   0.148
  453WAT     H1 1761   0.498   7.089   0.133
  453WAT     H2 1762   0.402   6.992   0.067
  454WAT      O 1763   0.992   4.237   2.860
  454WAT     H1 1764   1.064   4.205   2.806
  454WAT     H2 1765   0.972   4.165   2.919
  455WAT      O 1766   1.737   3.799   5.546
  455WAT     H1 1767   1.678   3.747   5.492
  455WAT     H2 1768   1.784   3.854   5.483
  456WAT      O 1769   1.508   2.607   3.045
  456WAT     H1 1770   1.428   2.563   3.073
  456WAT     H2 1771   1.536   2.656   3.122
  457WAT      O 1772   1.962   6.559   1.930
  457WAT     H1 1773   1.878   6.513   1.936
  457WAT     H2 1774   1.964   6.595   1.842
  458WAT      O 1775   5.402   5.039   4.558
  458WAT     H1 1776   5.443   5.014   4.476
  458WAT     H2 1777   5.348   5.115   4.536
  459WAT      O 1778   5.803   6.108   3.308
  459WAT     H1 1779   5.826   6.171   3.240
  459WAT     H2 1780   5.804   6.158   3.389
  460WAT      O 1781   1.747   5.510   4.186
  460WAT     H1 1782   1.703   5.472   4.110
  460WAT     H2 1783   1.683   5.570   4.224
  461WAT      O 1784   4.566   5.994   4.973
  461WAT     H1 1785   4.558   5.989   5.068
  461WAT     H2 1786   4.593   6.084   4.956
  462WAT      O 1787   3.838   2.315   2.179
  462WAT     H1 1788   3.823   2.392   2.125
  462WAT     H2 1789   3.928   2.323   2.209
  463WAT      O 1790   6.776   4.674   5.617
  463WAT     H1 1791   6.772   4.633   5.704
  463WAT     H2 1792   6.865   4.659   5.587
  464WAT      O 1793   1.562   6.763   1.272
  464WAT     H1 1794   1.657   6.750   1.276
  464WAT     H2 1795   1.529   6.726   1.353
  465WAT      O 1796   1.177   6.964   4.591
  465WAT     H1 1797   1.109   6.908   4.552
  465WAT     H2 1798   1.158   7.051   4.555
  466WAT      O 1799   5.177   2.811   0.501
  466WAT     H1 1800   5.133   2.806   0.415
  466WAT     H2 1801   5.258   2.858   0.483
  467WAT      O 1802   3.829   6.355   3.592
  467WAT     H1 1803   3.883   6.288   3.549
  467WAT     H2 1804   3.740   6.318   3.592
  468WAT      O 1805   4.221   7.077   1.943
  468WAT     H1 1806   4.235   7.106   1.853
  468WAT     H2 1807   4.129   7.048   1.944
  469WAT      O 1808   6.390   6.404   4.576
  469WAT     H1 1809   6.478   6.404   4.613
  469WAT     H2 1810   6.399   6.354   4.494
  470WAT      O 1811   0.951   4.036   1.336
  470WAT     H1 1812   0.885   4.011   1.401
  470WAT     H2 1813   0.902   4.086   1.270
  471WAT      O 1814   5.502   2.616   0.232
  471WAT     H1 1815   5.458   2.668   0.164
  471WAT     H2 1816   5.464   2.529   0.224
  472WAT      O 1817   0.397   5.404   5.470
  472WAT     H1 1818   0.324   5.343   5.465
  472WAT     H2 1819   0.463   5.367   5.411
  473WAT      O 1820   4.411   3.247   4.925
  473WAT     H1 1821   4.380   3.338   4.925
  473WAT     H2 1822   4.496   3.251   4.881
  474WAT      O 1823   1.471   4.024   4.757
  474WAT     H1 1824   1.427   3.972   4.690
  474WAT     H2 1825   1.464   4.114   4.725
  475WAT      O 1826   5.516   6.734   2.793
  475WAT     H1 1827   5.463   6.811   2.773
  475WAT     H2 1828   5.557   6.756   2.877
  476WAT      O 1829   3.051   1.158   5.877
  476WAT     H1 1830   3.076   1.239   5.921
  476WAT     H2 1831   3.053   1.180   5.784
  477WAT      O 1832   0.698   3.764   2.448
  477WAT     H1 1833   0.651   3.780   2.366
  477WAT     H2 1834   0.744   3.681   2.434
  478WAT      O 1835   3.905   4.171   5.718
  478WAT     H1 1836   3.862   4.192   5.801
  478WAT     H2 1837   3.899   4.076   5.710
  479WAT      O 1838   6.246   7.030   4.319
  479WAT     H1 1839   6.241   6.978   4.238
  479WAT     H2 1840   6.165   7.081   4.320
  480WAT      O 1841   3.732   3.988   5.408
  480WAT     H1 1842   3.785   3.939   5.345
  480WAT     H2 1843   3.659   4.022   5.356
  481WAT      O 1844   4.110   6.942   0.313
  481WAT     H1 1845   4.200   6.952   0.284
  481WAT     H2 1846   4.116   6.898   0.398
  482WAT      O 1847   4.558   3.958   3.269
  482WAT     H1 1848   4.607   4.004   3.201
  482WAT     H2 1849   4.620   3.946   3.340
  483WAT      O 1850   0.100   0.855   0.053
  483WAT     H1 1851   0.068   0.926  -0.004
  483WAT     H2 1852   0.189   0.881   0.075
  484WAT      O 1853   2.159   4.858   4.126
  484WAT     H1 1854   2.118   4.775   4.103
  484WAT     H2 1855   2.129   4.920   4.059
  485WAT      O 1856   6.611   6.873   4.170
  485WAT     H1 1857   6.531   6.915   4.137
  485WAT     H2 1858   6.643   6.820   4.097
  486WAT      O 1859   5.483   6.237   5.925
  486WAT     H1 1860   5.425   6.166   5.898
  486WAT     H2 1861   5.432   6.316   5.913
  487WAT      O 1862   6.222   5.272   0.395
  487WAT     H1 1863   6.214   5.262   0.300
  487WAT     H2 1864   6.133   5.261   0.428
  488WAT      O 1865   6.373   3.348   4.936
  488WAT     H1 1866   6.338   3.352   4.847
  488WAT     H2 1867   6.385   3.440   4.961
  489WAT      O 1868   1.409   1.698   4.451
  489WAT     H1 1869   1.403   1.788   4.418
  489WAT     H2 1870   1.420   1.645   4.372
  490WAT      O 1871   5.747   4.133   5.354
  490WAT     H1 1872   5.670   4.159   5.304
  490WAT     H2 1873   5.728   4.044   5.384
  491WAT      O 1874   1.896   5.865   3.495
  491WAT     H1 1875   1.939   5.795   3.446
  491WAT     H2 1876   1.930   5.857   3.584
  492WAT      O 1877   3.514   5.229   3.255
  492WAT     H1 1878   3.489   5.250   3.165
  492WAT     H2 1879   3.538   5.314   3.293
  493WAT      O 1880   6.753   2.124   1.076
  493WAT     H1 1881   6.740   2.037   1.114
  493WAT     H2 1882   6.678   2.136   1.017
  494WAT      O 1883   4.880   5.547   2.995
  494WAT     H1 1884   4.894   5.463   2.952
  494WAT     H2 1885   4.789   5.544   3.025
  495WAT      O 1886   7.005   3.205   3.013
  495WAT     H1 1887   6.922   3.191   2.967
  495WAT     H2 1888   7.015   3.300   3.016
  496WAT      O 1889   4.709   5.968   1.013
  496WAT     H1 1890   4.644   5.933   0.952
  496WAT     H2 1891   4.666   5.965   1.098
  497WAT      O 1892   3.345   5.847   3.275
  497WAT     H1 1893   3.342   5.769   3.219
  497WAT     H2 1894   3.312   5.818   3.359
  498WAT      O 1895   4.393   6.576   4.884
  498WAT     H1 1896   4.481   6.539   4.874
  498WAT     H2 1897   4.365   6.596   4.795
  499WAT      O 1898   6.423   1.182   0.880
  499WAT     H1 1899   6.427   1.274   0.854
  499WAT     H2 1900   6.488   1.173   0.950
  500WAT      O 1901   6.918   3.282   4.307
  500WAT     H1 1902   6.972   3.323   4.374
  500WAT     H2 1903   6.941   3.189   4.311
  501WAT      O 1904   5.711   0.056   5.906
  501WAT     H1 1905   5.624   0.032   5.873
  501WAT     H2 1906   5.764  -0.022   5.892
  502WAT      O 1907   7.524   6.984   2.322
  502WAT     H1 1908   7.457   6.918   2.343
  502WAT     H2 1909   7.529   6.983   2.227
  503WAT      O 1910   0.034   2.217   3.454
  503WAT     H1 1911   0.045   2.217   3.359
  503WAT     H2 1912  -0.059   2.201   3.468
  504WAT      O 1913   6.996   7.166   5.200
  504WAT     H1 1914   6.991   7.074   5.226
  504WAT     H2 1915   7.025   7.211   5.279
  505WAT      O 1916   4.805   4.759   5.666
  505WAT     H1 1917   4.714   4.783   5.679
  505WAT     H2 1918   4.829   4.796   5.581
  506WAT      O 1919   4.970   4.279   3.411
  506WAT     H1 1920   4.977   4.252   3.503
  506WAT     H2 1921   4.904   4.348   3.411
  507WAT      O 1922   5.182   5.103   4.169
  507WAT     H1 1923   5.213   5.033   4.112
  507WAT     H2 1924   5.172   5.178   4.110
  508WAT      O 1925   3.675   2.293   1.500
  508WAT     H1 1926   3.663   2.324   1.590
  508WAT     H2 1927   3.589   2.302   1.459
  509WAT      O 1928   1.272   1.346   1.471
  509WAT     H1 1929   1.327   1.288   1.417
  509WAT     H2 1930   1.300   1.434   1.447
  510WAT      O 1931   2.044   4.059   2.177
  510WAT     H1 1932   1.969   4.068   2.237
  510WAT     H2 1933   2.087   3.978   2.205
  511WAT      O 1934   1.957   2.053   5.885
  511WAT     H1 1935   1.901   2.006   5.947
  511WAT     H2 1936   1.895   2.092   5.823
  512WAT      O 1937   2.503   3.435   3.364
  512WAT     H1 1938   2.508   3.409   3.272
  512WAT     H2 1939   2.586   3.480   3.380
  513WAT      O 1940   3.595   4.952   3.286
  513WAT     H1 1941   3.547   4.914   3.213
  513WAT     H2 1942   3.569   5.044   3.287
  514WAT      O 1943   6.869   0.499   4.342
  514WAT     H1 1944   6.813   0.572   4.316
  514WAT     H2 1945   6.857   0.492   4.436
  515WAT      O 1946   0.445   1.740   4.530
  515WAT     H1 1947   0.537   1.760   4.551
  515WAT     H2 1948   0.420   1.805   4.465
  516WAT      O 1949   1.199   6.744   3.994
  516WAT     H1 1950   1.217   6.720   3.903
  516WAT     H2 1951   1.277   6.717   4.042
  517WAT      O 1952   7.183   6.838   0.589
  517WAT     H1 1953   7.125   6.837   0.513
  517WAT     H2 1954   7.246   6.908   0.572
  518WAT      O 1955   4.057   4.998   3.905
  518WAT     H1 1956   4.140   4.982   3.860
  518WAT     H2 1957   4.082   5.047   3.983
  519WAT      O 1958   0.036   1.811   3.913
  519WAT     H1 1959   0.120   1.812   3.867
  519WAT     H2 1960   0.027   1.899   3.950
  520WAT      O 1961   4.347   6.076   2.985
  520WAT     H1 1962   4.360   6.046   2.895
  520WAT     H2 1963   4.272   6.026   3.017
  521WAT      O 1964   1.364   7.114   5.740
  521WAT     H1 1965   1.371   7.059   5.662
  521WAT     H2 1966   1.270   7.129   5.751
  522WAT      O 1967   3.831   0.241   0.923
  522WAT     H1 1968   3.910   0.295   0.914
  522WAT     H2 1969   3.794   0.239   0.834
  523WAT      O 1970   1.585   4.687   5.155
  523WAT     H1 1971   1.616   4.625   5.221
  523WAT     H2 1972   1.656   4.691   5.091
  524WAT      O 1973   4.289   5.483   1.019
  524WAT     H1 1974   4.289   5.397   0.977
  524WAT     H2 1975   4.212   5.483   1.075
  525WAT      O 1976   1.707   2.522   6.177
  525WAT     H1 1977   1.680   2.553   6.090
  525WAT     H2 1978   1.722   2.429   6.166
  526WAT      O 1979   1.561   2.875   3.174
  526WAT     H1 1980   1.502   2.915   3.111
  526WAT     H2 1981   1.645   2.920   3.160
  527WAT      O 1982   2.366   3.343   5.218
  527WAT     H1 1983   2.427   3.368   5.148
  527WAT     H2 1984   2.312   3.275   5.179
  528WAT      O 1985   6.167   0.010   2.153
  528WAT     H1 1986   6.154   0.049   2.066
  528WAT     H2 1987   6.229  -0.061   2.139
  529WAT      O 1988   4.732   2.301   0.077
  529WAT     H1 1989   4.647   2.283   0.117
  529WAT     H2 1990   4.715   2.300  -0.017
  530WAT      O 1991   1.340   2.027   4.073
  530WAT     H1 1992   1.317   1.979   3.993
  530WAT     H2 1993   1.285   2.106   4.070
  531WAT      O 1994   4.301   5.321   2.149
  531WAT     H1 1995   4.396   5.334   2.146
  531WAT     H2 1996   4.264   5.410   2.143
  532WAT      O 1997   4.077   0.499   4.785
  532WAT     H1 1998   4.044   0.555   4.715
  532WAT     H2 1999   3.999   0.454   4.818
  533WAT      O 2000   4.590   5.903   0.765
  533WAT     H1 2001   4.558   5.815   0.745
  533WAT     H2 2002   4.671   5.911   0.713
  534WAT      O 2003   0.844   5.138   6.142
  534WAT     H1 2004   0.869   5.047   6.126
  534WAT     H2 2005   0.849   5.180   6.056
  535WAT      O 2006   6.511   6.597   2.836
  535WAT     H1 2007   6.470   6.683   2.828
  535WAT     H2 2008   6.510   6.562   2.747
  536WAT      O 2009   5.798   0.102   4.592
  536WAT     H1 2010   5.850   0.115   4.513
  536WAT     H2 2011   5.712   0.075   4.560
  537WAT      O 2012   3.238   1.001   5.515
  537WAT     H1 2013   3.235   1.085   5.469
  537WAT     H2 2014   3.152   0.993   5.555
  538WAT      O 2015   0.266   5.639   0.457
  538WAT     H1 2016   0.289   5.551   0.486
  538WAT     H2 2017   0.190   5.626   0.400
  539WAT      O 2018   2.999   1.271   2.837
  539WAT     H1 2019   3.063   1.204   2.813
  539WAT     H2 2020   2.936   1.270   2.765
  540WAT      O 2021   0.993   2.856   3.858
  540WAT     H1 2022   0.992   2.883   3.950
  540WAT     H2 2023   0.997   2.939   3.810
  541WAT      O 2024   2.175   3.278   4.261
  541WAT     H1 2025   2.251   3.301   4.208
  541WAT     H2 2026   2.142   3.362   4.294
  542WAT      O 2027   5.298   4.430   5.267
  542WAT     H1 2028   5.373   4.370   5.255
  542WAT     H2 2029   5.226   4.373   5.292
  543WAT      O 2030   0.068   2.396   0.315
  543WAT     H1 2031   0.137   2.450   0.277
  543WAT     H2 2032  -0.009   2.414   0.262
  544WAT      O 2033   5.991   0.155   4.982
  544WAT     H1 2034   6.033   0.166   4.897
  544WAT     H2 2035   5.951   0.068   4.978
  545WAT      O 2036   7.495   6.322   1.143
  545WAT     H1 2037   7.570   6.302   1.199
  545WAT     H2 2038   7.512   6.276   1.061
  546WAT      O 2039   0.429   1.025   4.341
  546WAT     H1 2040   0.505   1.039   4.398
  546WAT     H2 2041   0.452   0.947   4.290
  547WAT      O 2042   3.524   6.277   0.937
  547WAT     H1 2043   3.487   6.363   0.957
  547WAT     H2 2044   3.455   6.232   0.889
  548WAT      O 2045   0.900   6.987   5.150
  548WAT     H1 2046   0.906   6.904   5.198
  548WAT     H2 2047   0.820   7.028   5.183
  549WAT      O 2048   1.241   3.947   0.933
  549WAT     H1 2049   1.192   3.887   0.988
  549WAT     H2 2050   1.283   3.891   0.868
  550WAT      O 2051   1.643   0.908   3.772
  550WAT     H1 2052   1.703   0.877   3.839
  550WAT     H2 2053   1.697   0.915   3.693
  551WAT      O 2054   0.092   1.146   4.986
  551WAT     H1 2055   0.077   1.240   4.992
  551WAT     H2 2056   0.137   1.134   4.902
  552WAT      O 2057   1.139   1.101   0.979
  552WAT     H1 2058   1.183   1.023   1.014
  552WAT     H2 2059   1.100   1.143   1.056
  553WAT      O 2060   4.059   4.014   2.241
  553WAT     H1 2061   4.113   3.937   2.257
  553WAT     H2 2062   4.120   4.088   2.248
  554WAT      O 2063   0.142   1.958   4.638
  554WAT     H1 2064   0.207   2.026   4.622
  554WAT     H2 2065   0.110   1.934   4.551
  555WAT      O 2066   5.815   4.406   3.098
  555WAT     H1 2067   5.758   4.397   3.022
  555WAT     H2 2068   5.883   4.467   3.070
  556WAT      O 2069   4.837   4.651   3.939
  556WAT     H1 2070   4.814   4.741   3.963
  556WAT     H2 2071   4.924   4.659   3.899
  557WAT      O 2072   4.079   2.245   1.294
  557WAT     H1 2073   4.007   2.307   1.283
  557WAT     H2 2074   4.158   2.300   1.295
  558WAT      O 2075   2.960   2.952   0.101
  558WAT     H1 2076   2.976   3.024   0.039
  558WAT     H2 2077   2.951   2.875   0.045
  559WAT      O 2078   7.292   2.010   0.981
  559WAT     H1 2079   7.282   1.983   0.890
  559WAT     H2 2080   7.225   2.078   0.993
  560WAT      O 2081   6.517   0.648   3.777
  560WAT     H1 2082   6.471   0.599   3.846
  560WAT     H2 2083   6.448   0.696   3.731
  561WAT      O 2084   1.288   0.865   1.965
  561WAT     H1 2085   1.322   0.777   1.950
  561WAT     H2 2086   1.193   0.855   1.965
  562WAT      O 2087   6.288   6.753   0.128
  562WAT     H1 2088   6.244   6.680   0.083
  562WAT     H2 2089   6.327   6.804   0.057
  563WAT      O 2090   3.345   6.502   4.962
  563WAT     H1 2091   3.330   6.596   4.948
  563WAT     H2 2092   3.440   6.495   4.972
  564WAT      O 2093   6.403   3.731   1.034
  564WAT     H1 2094   6.450   3.808   1.002
  564WAT     H2 2095   6.318   3.736   0.990
  565WAT      O 2096   5.111   4.611   1.386
  565WAT     H1 2097   5.038   4.631   1.445
  565WAT     H2 2098   5.186   4.658   1.424
  566WAT      O 2099   6.087   5.694   0.893
  566WAT     H1 2100   6.108   5.646   0.813
  566WAT     H2 2101   6.134   5.777   0.884
  567WAT      O 2102   1.789   1.139   0.056
  567WAT     H1 2103   1.739   1.058   0.061
  567WAT     H2 2104   1.802   1.154  -0.038
  568WAT      O 2105   1.077   2.699   0.487
  568WAT     H1 2106   1.124   2.616   0.501
  568WAT     H2 2107   0.987   2.680   0.512
  569WAT      O 2108   1.531   0.036   1.364
  569WAT     H1 2109   1.438   0.031   1.339
  569WAT     H2 2110   1.574  -0.029   1.308
  570WAT      O 2111   2.722   0.669   2.020
  570WAT     H1 2112   2.641   0.707   1.986
  570WAT     H2 2113   2.751   0.608   1.952
  571WAT      O 2114   2.365   6.391   2.907
  571WAT     H1 2115   2.273   6.381   2.882
  571WAT     H2 2116   2.411   6.327   2.853
  572WAT      O 2117   2.703   3.865   0.562
  572WAT     H1 2118   2.704   3.898   0.472
  572WAT     H2 2119   2.720   3.943   0.615
  573WAT      O 2120   7.395   6.212   4.303
  573WAT     H1 2121   7.472   6.226   4.248
  573WAT     H2 2122   7.346   6.142   4.259
  574WAT      O 2123   0.088   3.425   0.668
  574WAT     H1 2124   0.047   3.338   0.666
  574WAT     H2 2125   0.163   3.418   0.609
  575WAT      O 2126   0.408   2.932   3.818
  575WAT     H1 2127   0.406   2.919   3.724
  575WAT     H2 2128   0.379   3.023   3.830
  576WAT      O 2129   2.043   3.588   5.096
  576WAT     H1 2130   1.984   3.606   5.169
  576WAT     H2 2131   2.092   3.669   5.083
  577WAT      O 2132   2.813   7.181   0.886
  577WAT     H1 2133   2.784   7.172   0.977
  577WAT     H2 2134   2.800   7.274   0.867
  578WAT      O 2135   0.247   3.930   0.535
  578WAT     H1 2136   0.218   4.017   0.509
  578WAT     H2 2137   0.253   3.934   0.631
  579WAT      O 2138   3.656   1.174   0.794
  579WAT     H1 2139   3.702   1.179   0.710
  579WAT     H2 2140   3.569   1.141   0.772
  580WAT      O 2141   3.313   0.342   0.688
  580WAT     H1 2142   3.404   0.366   0.703
  580WAT     H2 2143   3.263   0.421   0.707
  581WAT      O 2144   2.614   4.521   3.941
  581WAT     H1 2145   2.536   4.467   3.952
  581WAT     H2 2146   2.597   4.599   3.994
  582WAT      O 2147   4.532   3.335   4.254
  582WAT     H1 2148   4.601   3.269   4.256
  582WAT     H2 2149   4.571   3.409   4.206
  583WAT      O 2150   0.537   6.439   1.468
  583WAT     H1 2151   0.566   6.527   1.491
  583WAT     H2 2152   0.544   6.436   1.372
  584WAT      O 2153   0.926   6.235   6.191
  584WAT     H1 2154   0.988   6.251   6.120
  584WAT     H2 2155   0.843   6.270   6.159
  585WAT      O 2156   6.662   1.673   1.902
  585WAT     H1 2157   6.733   1.618   1.868
  585WAT     H2 2158   6.634   1.725   1.827
  586WAT      O 2159   6.388   3.599   0.036
  586WAT     H1 2160   6.456   3.538   0.009
  586WAT     H2 2161   6.403   3.611   0.130
  587WAT      O 2162   2.441   0.701   3.702
  587WAT     H1 2163   2.535   0.695   3.684
  587WAT     H2 2164   2.406   0.752   3.629
  588WAT      O 2165   2.073   2.168   3.902
  588WAT     H1 2166   2.146   2.133   3.953
  588WAT     H2 2167   2.111   2.241   3.853
  589WAT      O 2168   4.026   2.483   0.880
  589WAT     H1 2169   4.051   2.565   0.922
  589WAT     H2 2170   4.094   2.466   0.815
  590WAT      O 2171   7.403   7.149   4.349
  590WAT     H1 2172   7.435   7.179   4.264
  590WAT     H2 2173   7.421   7.055   4.350
  591WAT      O 2174   3.216   5.700   3.467
  591WAT     H1 2175   3.122   5.713   3.450
  591WAT     H2 2176   3.223   5.608   3.493
  592WAT      O 2177   0.088   0.144   0.556
  592WAT     H1 2178   0.110   0.208   0.623
  592WAT     H2 2179   0.154   0.156   0.488
  593WAT      O 2180   4.230   3.920   5.425
  593WAT     H1 2181   4.265   3.859   5.360
  593WAT     H2 2182   4.271   4.004   5.403
  594WAT      O 2183   6.841   0.921   4.705
  594WAT     H1 2184   6.907   0.852   4.707
  594WAT     H2 2185   6.840   0.956   4.794
  595WAT      O 2186   2.722   5.040   1.375
  595WAT     H1 2187   2.654   5.096   1.412
  595WAT     H2 2188   2.679   4.995   1.303
  596WAT      O 2189   3.306   0.709   0.140
  596WAT     H1 2190   3.331   0.770   0.070
  596WAT     H2 2191   3.311   0.622   0.100
  597WAT      O 2192   5.176   5.621   3.092
  597WAT     H1 2193   5.233   5.545   3.078
  597WAT     H2 2194   5.192   5.678   3.017
  598WAT      O 2195   3.255   4.205   2.194
  598WAT     H1 2196   3.334   4.254   2.172
  598WAT     H2 2197   3.186   4.271   2.197
  599WAT      O 2198   2.500   5.028   4.371
  599WAT     H1 2199   2.456   5.024   4.286
  599WAT     H2 2200   2.567   5.096   4.360
  600WAT      O 2201   1.534   5.649   4.389
  600WAT     H1 2202   1.588   5.718   4.428
  600WAT     H2 2203   1.486   5.612   4.463
  601WAT      O 2204   6.045   0.996   4.782
  601WAT     H1 2205   6.074   0.935   4.850
  601WAT     H2 2206   6.064   0.951   4.700
  602WAT      O 2207   2.017   3.721   5.405
  602WAT     H1 2208   2.074   3.646   5.419
  602WAT     H2 2209   1.937   3.685   5.368
  603WAT      O 2210   1.511   0.497   3.067
  603WAT     H1 2211   1.512   0.558   2.993
  603WAT     H2 2212   1.430   0.516   3.114
  604WAT      O 2213   5.539   1.916   1.683
  604WAT     H1 2214   5.520   1.899   1.775
  604WAT     H2 2215   5.617   1.971   1.684
  605WAT      O 2216   4.765   1.594   1.285
  605WAT     H1 2217   4.723   1.679   1.270
  605WAT     H2 2218   4.744   1.543   1.207
  606WAT      O 2219   2.535   0.780   3.948
  606WAT     H1 2220   2.512   0.742   3.864
  606WAT     H2 2221   2.471   0.850   3.961
  607WAT      O 2222   2.586   4.619   0.663
  607WAT     H1 2223   2.561   4.595   0.573
  607WAT     H2 2224   2.671   4.578   0.676
  608WAT      O 2225   5.777   1.865   4.876
  608WAT     H1 2226   5.806   1.943   4.924
  608WAT     H2 2227   5.704   1.896   4.822
  609WAT      O 2228   3.397   5.544   0.830
  609WAT     H1 2229   3.385   5.629   0.787
  609WAT     H2 2230   3.309   5.517   0.857
  610WAT      O 2231   2.588   4.240   3.626
  610WAT     H1 2232   2.666   4.198   3.661
  610WAT     H2 2233   2.527   4.245   3.700
  611WAT      O 2234   0.717   0.818   0.016
  611WAT     H1 2235   0.790   0.841  -0.042
  611WAT     H2 2236   0.684   0.735  -0.018
  612WAT      O 2237   3.865   3.454   0.353
  612WAT     H1 2238   3.904   3.399   0.285
  612WAT     H2 2239   3.936   3.513   0.380
  613WAT      O 2240   7.480   0.613   1.656
  613WAT     H1 2241   7.516   0.553   1.591
  613WAT     H2 2242   7.505   0.700   1.625
  614WAT      O 2243   0.163   3.664   0.462
  614WAT     H1 2244   0.240   3.613   0.485
  614WAT     H2 2245   0.187   3.755   0.482
  615WAT      O 2246   6.287   2.749   6.034
  615WAT     H1 2247   6.275   2.746   5.939
  615WAT     H2 2248   6.226   2.684   6.068
  616WAT      O 2249   5.140   6.543   2.233
  616WAT     H1 2250   5.068   6.544   2.170
  616WAT     H2 2251   5.159   6.450   2.246
  617WAT      O 2252   0.690   6.366   0.784
  617WAT     H1 2253   0.784   6.353   0.796
  617WAT     H2 2254   0.682   6.407   0.697
  618WAT      O 2255   0.188   6.840   0.082
  618WAT     H1 2256   0.241   6.773   0.038
  618WAT     H2 2257   0.196   6.918   0.027
  619WAT      O 2258   3.506   3.432   0.662
  619WAT     H1 2259   3.505   3.472   0.574
  619WAT     H2 2260   3.421   3.457   0.699
  620WAT      O 2261   6.930   0.480   3.153
  620WAT     H1 2262   6.925   0.399   3.204
  620WAT     H2 2263   7.016   0.515   3.172
  621WAT      O 2264  -0.002   0.057   3.754
  621WAT     H1 2265   0.022   0.057   3.846
  621WAT     H2 2266   0.080   0.046   3.707
  622WAT      O 2267   2.604   2.180   2.894
  622WAT     H1 2268   2.691   2.212   2.920
  622WAT     H2 2269   2.611   2.168   2.799
  623WAT      O 2270   6.217   2.877   1.449
  623WAT     H1 2271   6.223   2.798   1.396
  623WAT     H2 2272   6.160   2.936   1.399
  624WAT      O 2273   7.450   3.082   2.499
  624WAT     H1 2274   7.534   3.117   2.530
  624WAT     H2 2275   7.463   2.987   2.498
  625WAT      O 2276   4.658   4.791   0.362
  625WAT     H1 2277   4.704   4.767   0.442
  625WAT     H2 2278   4.726   4.788   0.294
  626WAT      O 2279   1.042   4.173   2.208
  626WAT     H1 2280   1.084   4.157   2.123
  626WAT     H2 2281   0.994   4.254   2.196
  627WAT      O 2282   7.467   0.490   2.608
  627WAT     H1 2283   7.524   0.418   2.634
  627WAT     H2 2284   7.473   0.493   2.513
  628WAT      O 2285   5.246   0.703   0.413
  628WAT     H1 2286   5.312   0.643   0.449
  628WAT     H2 2287   5.291   0.746   0.340
  629WAT      O 2288   2.115   5.398   5.170
  629WAT     H1 2289   2.208   5.402   5.146
  629WAT     H2 2290   2.070   5.445   5.100
  630WAT      O 2291   2.705   0.985   3.736
  630WAT     H1 2292   2.746   0.996   3.821
  630WAT     H2 2293   2.615   1.017   3.748
  631WAT      O 2294   3.860   3.376   1.488
  631WAT     H1 2295   3.784   3.387   1.545
  631WAT     H2 2296   3.864   3.457   1.437
  632WAT      O 2297   5.437   0.173   4.335
  632WAT     H1 2298   5.492   0.102   4.300
  632WAT     H2 2299   5.440   0.160   4.430
  633WAT      O 2300   0.172   4.507   1.677
  633WAT     H1 2301   0.083   4.526   1.646
  633WAT     H2 2302   0.217   4.472   1.600
  634WAT      O 2303   5.243   3.702   4.063
  634WAT     H1 2304   5.263   3.632   4.001
  634WAT     H2 2305   5.272   3.782   4.018
  635WAT      O 2306   0.816   2.491   5.142
  635WAT     H1 2307   0.909   2.511   5.130
  635WAT     H2 2308   0.807   2.401   5.109
  636WAT      O 2309   1.720   3.574   5.066
  636WAT     H1 2310   1.650   3.639   5.071
  636WAT     H2 2311   1.769   3.596   4.987
  637WAT      O 2312   3.922   4.184   1.286
  637WAT     H1 2313   3.871   4.107   1.311
  637WAT     H2 2314   4.007   4.148   1.259
  638WAT      O 2315   0.950   2.557   2.377
  638WAT     H1 2316   1.027   2.501   2.372
  638WAT     H2 2317   0.936   2.586   2.287
  639WAT      O 2318   3.920   3.465   4.711
  639WAT     H1 2319   3.998   3.485   4.659
  639WAT     H2 2320   3.893   3.550   4.746
  640WAT      O 2321   3.068   6.863   3.909
  640WAT     H1 2322   3.099   6.789   3.857
  640WAT     H2 2323   3.014   6.915   3.848
  641WAT      O 2324   2.873   5.867   4.214
  641WAT     H1 2325   2.799   5.840   4.269
  641WAT     H2 2326   2.948   5.866   4.273
  642WAT      O 2327   4.705   3.322   6.089
  642WAT     H1 2328   4.662   3.401   6.122
  642WAT     H2 2329   4.659   3.250   6.132
  643WAT      O 2330   1.931   5.966   0.633
  643WAT     H1 2331   1.856   6.019   0.660
  643WAT     H2 2332   1.991   6.029   0.593
  644WAT      O 2333   6.483   3.543   2.243
  644WAT     H1 2334   6.465   3.631   2.211
  644WAT     H2 2335   6.413   3.489   2.205
  645WAT      O 2336   0.073   4.180   4.172
  645WAT     H1 2337   0.003   4.137   4.221
  645WAT     H2 2338   0.131   4.108   4.145
  646WAT      O 2339   0.214   1.850   2.313
  646WAT     H1 2340   0.262   1.837   2.394
  646WAT     H2 2341   0.179   1.939   2.320
  647WAT      O 2342   7.143   1.825   2.473
  647WAT     H1 2343   7.182   1.819   2.560
  647WAT     H2 2344   7.075   1.892   2.482
  648WAT      O 2345   6.638   0.145   5.463
  648WAT     H1 2346   6.570   0.086   5.430
  648WAT     H2 2347   6.720   0.107   5.433
  649WAT      O 2348   1.643   6.476   4.097
  649WAT     H1 2349   1.710   6.413   4.074
  649WAT     H2 2350   1.565   6.422   4.116
  650WAT      O 2351   1.193   6.991   0.331
  650WAT     H1 2352   1.199   7.060   0.397
  650WAT     H2 2353   1.243   7.024   0.257
  651WAT      O 2354   3.024   0.114   1.665
  651WAT     H1 2355   3.088   0.182   1.686
  651WAT     H2 2356   3.027   0.054   1.739
  652WAT      O 2357   1.966   0.073   1.813
  652WAT     H1 2358   1.969  -0.023   1.812
  652WAT     H2 2359   1.896   0.095   1.875
  653WAT      O 2360   1.224   2.740   0.154
  653WAT     H1 2361   1.175   2.776   0.229
  653WAT     H2 2362   1.316   2.750   0.179
  654WAT      O 2363   5.820   2.309   5.350
  654WAT     H1 2364   5.786   2.317   5.260
  654WAT     H2 2365   5.765   2.368   5.401
  655WAT      O 2366   5.391   6.376   1.091
  655WAT     H1 2367   5.368   6.299   1.143
  655WAT     H2 2368   5.318   6.388   1.031
  656WAT      O 2369   2.155   2.827   0.687
  656WAT     H1 2370   2.168   2.762   0.756
  656WAT     H2 2371   2.210   2.798   0.615
  657WAT      O 2372   4.349   3.091   0.375
  657WAT     H1 2373   4.315   3.154   0.312
  657WAT     H2 2374   4.279   3.027   0.385
  658WAT      O 2375   2.355   7.016   3.346
  658WAT     H1 2376   2.293   7.024   3.273
  658WAT     H2 2377   2.324   7.080   3.411
  659WAT      O 2378   5.581   4.995   3.646
  659WAT     H1 2379   5.644   5.064   3.628
  659WAT     H2 2380   5.578   4.988   3.741
  660WAT      O 2381   6.082   2.719   1.663
  660WAT     H1 2382   6.054   2.634   1.627
  660WAT     H2 2383   6.124   2.763   1.589
  661WAT      O 2384   1.369   5.273   1.036
  661WAT     H1 2385   1.353   5.365   1.014
  661WAT     H2 2386   1.392   5.232   0.953
  662WAT      O 2387   7.336   4.441   3.536
  662WAT     H1 2388   7.259   4.494   3.555
  662WAT     H2 2389   7.302   4.363   3.493
  663WAT      O 2390   6.008   2.294   0.553
  663WAT     H1 2391   5.944   2.365   0.563
  663WAT     H2 2392   6.066   2.324   0.483
  664WAT      O 2393   1.185   3.635   4.105
  664WAT     H1 2394   1.128   3.559   4.097
  664WAT     H2 2395   1.266   3.601   4.144
  665WAT      O 2396   5.393   4.633   4.481
  665WAT     H1 2397   5.313   4.638   4.534
  665WAT     H2 2398   5.380   4.700   4.414
  666WAT      O 2399   3.583   2.997   0.050
  666WAT     H1 2400   3.617   3.081   0.019
  666WAT     H2 2401   3.530   2.964  -0.022
  667WAT      O 2402   4.985   5.855   5.832
  667WAT     H1 2403   4.987   5.902   5.916
  667WAT     H2 2404   4.919   5.787   5.845
  668WAT      O 2405   0.446   6.304   4.417
  668WAT     H1 2406   0.363   6.268   4.447
  668WAT     H2 2407   0.506   6.229   4.414
  669WAT      O 2408   1.583   0.121   4.514
  669WAT     H1 2409   1.674   0.120   4.485
  669WAT     H2 2410   1.533   0.097   4.436
  670WAT      O 2411   6.321   3.111   5.834
  670WAT     H1 2412   6.283   3.198   5.844
  670WAT     H2 2413   6.399   3.111   5.888
  671WAT      O 2414   5.063   1.188   3.140
  671WAT     H1 2415   5.067   1.132   3.063
  671WAT     H2 2416   4.980   1.236   3.131
  672WAT      O 2417   2.009   0.082   4.869
  672WAT     H1 2418   1.962   0.015   4.819
  672WAT     H2 2419   1.942   0.125   4.922
  673WAT      O 2420   1.796   0.842   2.636
  673WAT     H1 2421   1.724   0.874   2.581
  673WAT     H2 2422   1.861   0.913   2.633
  674WAT      O 2423   3.880   4.227   3.860
  674WAT     H1 2424   3.791   4.229   3.826
  674WAT     H2 2425   3.934   4.264   3.790
  675WAT      O 2426   4.732   2.942   1.543
  675WAT     H1 2427   4.776   3.025   1.527
  675WAT     H2 2428   4.639   2.966   1.549
  676WAT      O 2429   4.139   5.467   4.194
  676WAT     H1 2430   4.074   5.538   4.198
  676WAT     H2 2431   4.200   5.495   4.125
  677WAT      O 2432   4.596   6.513   5.223
  677WAT     H1 2433   4.549   6.531   5.304
  677WAT     H2 2434   4.624   6.599   5.192
  678WAT      O 2435   2.307   2.087   0.418
  678WAT     H1 2436   2.306   2.048   0.506
  678WAT     H2 2437   2.271   2.175   0.430
  679WAT      O 2438   2.834   0.978   5.310
  679WAT     H1 2439   2.784   0.902   5.280
  679WAT     H2 2440   2.820   0.980   5.405
  680WAT      O 2441   7.484   0.269   4.445
  680WAT     H1 2442   7.549   0.199   4.452
  680WAT     H2 2443   7.407   0.227   4.408
  681WAT      O 2444   1.215   2.876   2.715
  681WAT     H1 2445   1.299   2.862   2.758
  681WAT     H2 2446   1.230   2.949   2.655
  682WAT      O 2447   1.089   5.266   0.228
  682WAT     H1 2448   1.136   5.349   0.218
  682WAT     H2 2449   1.108   5.239   0.318
  683WAT      O 2450   4.837   6.462   1.205
  683WAT     H1 2451   4.827   6.381   1.255
  683WAT     H2 2452   4.877   6.523   1.267
  684WAT      O 2453   5.049   3.876   3.519
  684WAT     H1 2454   5.112   3.935   3.480
  684WAT     H2 2455   5.002   3.837   3.445
  685WAT      O 2456   6.874   4.399   3.061
  685WAT     H1 2457   6.883   4.313   3.019
  685WAT     H2 2458   6.954   4.447   3.035
  686WAT      O 2459   3.602   4.344   4.421
  686WAT     H1 2460   3.543   4.419   4.426
  686WAT     H2 2461   3.687   4.381   4.397
  687WAT      O 2462   5.163   4.568   3.338
  687WAT     H1 2463   5.124   4.655   3.326
  687WAT     H2 2464   5.150   4.524   3.254
  688WAT      O 2465   1.140   0.428   2.488
  688WAT     H1 2466   1.073   0.371   2.450
  688WAT     H2 2467   1.210   0.428   2.423
  689WAT      O 2468   3.468   6.963   4.038
  689WAT     H1 2469   3.423   6.881   4.015
  689WAT     H2 2470   3.544   6.965   3.981
  690WAT      O 2471   0.873   6.552   5.784
  690WAT     H1 2472   0.856   6.569   5.691
  690WAT     H2 2473   0.793   6.510   5.815
  691WAT      O 2474   1.161   5.280   6.158
  691WAT     H1 2475   1.187   5.363   6.117
  691WAT     H2 2476   1.078   5.258   6.115
  692WAT      O 2477   0.483   5.571   1.141
  692WAT     H1 2478   0.551   5.583   1.075
  692WAT     H2 2479   0.405   5.610   1.102
  693WAT      O 2480   4.346   3.303   0.757
  693WAT     H1 2481   4.272   3.349   0.716
  693WAT     H2 2482   4.423   3.336   0.710
  694WAT      O 2483   0.726   6.918   1.936
  694WAT     H1 2484   0.640   6.887   1.907
  694WAT     H2 2485   0.765   6.844   1.982
  695WAT      O 2486   4.217   4.594   2.779
  695WAT     H1 2487   4.191   4.670   2.728
  695WAT     H2 2488   4.295   4.561   2.734
  696WAT      O 2489   1.212   3.260   2.309
  696WAT     H1 2490   1.223   3.333   2.370
  696WAT     H2 2491   1.152   3.293   2.242
  697WAT      O 2492   2.476   2.362   1.896
  697WAT     H1 2493   2.567   2.352   1.868
  697WAT     H2 2494   2.442   2.272   1.903
  698WAT      O 2495   6.687   4.054   3.307
  698WAT     H1 2496   6.627   4.121   3.339
  698WAT     H2 2497   6.771   4.100   3.298
  699WAT      O 2498   0.460   0.369   0.977
  699WAT     H1 2499   0.496   0.356   0.890
  699WAT     H2 2500   0.533   0.351   1.036
  700WAT      O 2501   5.054   6.305   4.971
  700WAT     H1 2502   4.988   6.362   5.012
  700WAT     H2 2503   5.042   6.318   4.877
  701WAT      O 2504   1.841   1.354   4.254
  701WAT     H1 2505   1.829   1.294   4.181
  701WAT     H2 2506   1.761   1.346   4.306
  702WAT      O 2507   1.634   6.967   0.333
  702WAT     H1 2508   1.588   6.966   0.249
  702WAT     H2 2509   1.586   7.031   0.386
  703WAT      O 2510   0.743   6.747   0.213
  703WAT     H1 2511   0.799   6.804   0.160
  703WAT     H2 2512   0.760   6.659   0.181
  704WAT      O 2513   0.904   4.136   6.139
  704WAT     H1 2514   0.824   4.085   6.123
  704WAT     H2 2515   0.927   4.173   6.054
  705WAT      O 2516   0.144   5.674   5.408
  705WAT     H1 2517   0.086   5.635   5.474
  705WAT     H2 2518   0.202   5.603   5.382
  706WAT      O 2519   6.911   4.134   3.598
  706WAT     H1 2520   6.905   4.188   3.519
  706WAT     H2 2521   6.942   4.048   3.566
  707WAT      O 2522   4.911   4.434   4.749
  707WAT     H1 2523   4.885   4.344   4.730
  707WAT     H2 2524   4.847   4.488   4.701
  708WAT      O 2525   7.295   1.612   5.680
  708WAT     H1 2526   7.374   1.558   5.686
  708WAT     H2 2527   7.268   1.605   5.589
  709WAT      O 2528   0.364   2.924   5.169
  709WAT     H1 2529   0.447   2.967   5.190
  709WAT     H2 2530   0.389   2.837   5.138
  710WAT      O 2531   6.188   0.288   0.557
  710WAT     H1 2532   6.111   0.239   0.527
  710WAT     H2 2533   6.227   0.322   0.476
  711WAT      O 2534   1.063   2.273   3.468
  711WAT     H1 2535   0.972   2.301   3.476
  711WAT     H2 2536   1.078   2.217   3.544
  712WAT      O 2537   0.046   5.514   4.416
  712WAT     H1 2538   0.084   5.428   4.402
  712WAT     H2 2539   0.067   5.563   4.336
  713WAT      O 2540   2.260   0.249   4.557
  713WAT     H1 2541   2.209   0.231   4.478
  713WAT     H2 2542   2.278   0.342   4.553
  714WAT      O 2543   4.869   1.981   6.045
  714WAT     H1 2544   4.961   2.006   6.051
  714WAT     H2 2545   4.842   2.011   5.958
  715WAT      O 2546   0.344   2.230   5.561
  715WAT     H1 2547   0.275   2.208   5.498
  715WAT     H2 2548   0.356   2.150   5.612
  716WAT      O 2549   0.693   6.677   1.618
  716WAT     H1 2550   0.695   6.649   1.710
  716WAT     H2 2551   0.749   6.614   1.573
  717WAT      O 2552   1.386   5.806   2.517
  717WAT     H1 2553   1.300   5.847   2.520
  717WAT     H2 2554   1.375   5.728   2.463
  718WAT      O 2555   2.797   3.189   4.789
  718WAT     H1 2556   2.829   3.197   4.699
  718WAT     H2 2557   2.717   3.242   4.790
  719WAT      O 2558   6.481   5.005   5.033
  719WAT     H1 2559   6.399   5.049   5.056
  719WAT     H2 2560   6.510   5.048   4.952
  720WAT      O 2561   7.333   5.450   1.334
  720WAT     H1 2562   7.374   5.438   1.419
  720WAT     H2 2563   7.405   5.474   1.275
  721WAT      O 2564   3.227   6.464   1.864
  721WAT     H1 2565   3.177   6.413   1.799
  721WAT     H2 2566   3.294   6.404   1.895
  722WAT      O 2567   4.809   2.309   3.312
  722WAT     H1 2568   4.730   2.262   3.284
  722WAT     H2 2569   4.882   2.256   3.280
  723WAT      O 2570   1.719   6.474   4.742
  723WAT     H1 2571   1.699   6.384   4.716
  723WAT     H2 2572   1.681   6.528   4.672
  724WAT      O 2573   4.989   6.868   4.341
  724WAT     H1 2574   4.925   6.872   4.270
  724WAT     H2 2575   4.960   6.794   4.395
  725WAT      O 2576   4.977   4.015   4.503
  725WAT     H1 2577   4.982   4.022   4.407
  725WAT     H2 2578   5.068   4.022   4.532
  726WAT      O 2579   5.424   3.097   0.508
  726WAT     H1 2580   5.514   3.126   0.519
  726WAT     H2 2581   5.430   3.019   0.453
  727WAT      O 2582   7.514   2.986   3.602
  727WAT     H1 2583   7.440   2.927   3.616
  727WAT     H2 2584   7.513   3.004   3.508
  728WAT      O 2585   5.833   6.270   5.146
  728WAT     H1 2586   5.810   6.289   5.055
  728WAT     H2 2587   5.821   6.175   5.154
  729WAT      O 2588   2.639   1.426   4.689
  729WAT     H1 2589   2.642   1.335   4.720
  729WAT     H2 2590   2.731   1.452   4.682
  730WAT      O 2591   2.890   3.682   1.192
  730WAT     H1 2592   2.810   3.734   1.184
  730WAT     H2 2593   2.904   3.675   1.286
  731WAT      O 2594   4.788   0.339   5.112
  731WAT     H1 2595   4.790   0.244   5.128
  731WAT     H2 2596   4.877   0.360   5.084
  732WAT      O 2597   1.043   3.725   3.895
  732WAT     H1 2598   1.069   3.665   3.825
  732WAT     H2 2599   1.098   3.699   3.969
  733WAT      O 2600   2.684   3.172   0.128
  733WAT     H1 2601   2.597   3.180   0.089
  733WAT     H2 2602   2.716   3.262   0.134
  734WAT      O 2603   7.310   2.501   2.618
  734WAT     H1 2604   7.381   2.475   2.560
  734WAT     H2 2605   7.231   2.469   2.575
  735WAT      O 2606   0.992   4.346   4.828
  735WAT     H1 2607   1.044   4.336   4.749
  735WAT     H2 2608   0.918   4.287   4.816
  736WAT      O 2609   5.692   5.103   0.267
  736WAT     H1 2610   5.598   5.094   0.252
  736WAT     H2 2611   5.732   5.067   0.188
  737WAT      O 2612   3.639   6.340   4.276
  737WAT     H1 2613   3.644   6.303   4.187
  737WAT     H2 2614   3.557   6.305   4.311
  738WAT      O 2615   6.718   3.653   1.366
  738WAT     H1 2616   6.703   3.574   1.313
  738WAT     H2 2617   6.651   3.714   1.336
  739WAT      O 2618   3.346   6.288   5.679
  739WAT     H1 2619   3.372   6.222   5.615
  739WAT     H2 2620   3.428   6.320   5.715
  740WAT      O 2621   5.208   2.235   1.756
  740WAT     H1 2622   5.277   2.222   1.692
  740WAT     H2 2623   5.147   2.163   1.741
  741WAT      O 2624   1.363   5.750   0.788
  741WAT     H1 2625   1.429   5.755   0.719
  741WAT     H2 2626   1.357   5.839   0.823
  742WAT      O 2627   6.116   4.319   5.360
  742WAT     H1 2628   6.034   4.308   5.408
  742WAT     H2 2629   6.184   4.289   5.421
  743WAT      O 2630   4.333   2.746   5.386
  743WAT     H1 2631   4.291   2.797   5.317
  743WAT     H2 2632   4.300   2.657   5.374
  744WAT      O 2633   6.230   5.004   2.314
  744WAT     H1 2634   6.300   5.033   2.372
  744WAT     H2 2635   6.150   5.017   2.365
  745WAT      O 2636   3.716   2.093   0.348
  745WAT     H1 2637   3.696   2.071   0.257
  745WAT     H2 2638   3.795   2.147   0.343
  746WAT      O 2639   1.709   2.584   2.422
  746WAT     H1 2640   1.656   2.511   2.455
  746WAT     H2 2641   1.798   2.565   2.452
  747WAT      O 2642   4.839   6.852   0.530
  747WAT     H1 2643   4.933   6.869   0.536
  747WAT     H2 2644   4.808   6.910   0.460
  748WAT      O 2645   6.864   0.023   0.260
  748WAT     H1 2646   6.870   0.050   0.168
  748WAT     H2 2647   6.856  -0.073   0.256
  749WAT      O 2648   4.322   0.239   3.469
  749WAT     H1 2649   4.333   0.145   3.454
  749WAT     H2 2650   4.240   0.246   3.519
  750WAT      O 2651   2.897   1.903   1.772
  750WAT     H1 2652   2.927   1.954   1.696
  750WAT     H2 2653   2.873   1.968   1.837
  751WAT      O 2654   2.215   0.674   6.069
  751WAT     H1 2655   2.249   0.759   6.097
  751WAT     H2 2656   2.235   0.670   5.976
  752WAT      O 2657   4.370   5.347   0.266
  752WAT     H1 2658   4.388   5.404   0.191
  752WAT     H2 2659   4.309   5.281   0.233
  753WAT      O 2660   5.389   1.091   2.097
  753WAT     H1 2661   5.471   1.122   2.136
  753WAT     H2 2662   5.392   1.123   2.007
  754WAT      O 2663   6.829   1.562   3.434
  754WAT     H1 2664   6.849   1.647   3.395
  754WAT     H2 2665   6.915   1.523   3.453
  755WAT      O 2666   6.407   0.884   0.258
  755WAT     H1 2667   6.394   0.975   0.231
  755WAT     H2 2668   6.471   0.850   0.195
  756WAT      O 2669   0.806   7.139   2.133
  756WAT     H1 2670   0.885   7.118   2.182
  756WAT     H2 2671   0.784   7.059   2.086
  757WAT      O 2672   5.626   2.338   3.568
  757WAT     H1 2673   5.697   2.342   3.633
  757WAT     H2 2674   5.621   2.427   3.534
  758WAT      O 2675   2.901   0.520   0.198
  758WAT     H1 2676   2.838   0.539   0.129
  758WAT     H2 2677   2.984   0.509   0.152
  759WAT      O 2678   6.956   0.005   4.111
  759WAT     H1 2679   6.948   0.037   4.021
  759WAT     H2 2680   6.883  -0.056   4.121
  760WAT      O 2681   1.171   5.605   2.724
  760WAT     H1 2682   1.185   5.685   2.674
  760WAT     H2 2683   1.222   5.539   2.678
  761WAT      O 2684   1.461   3.732   0.900
  761WAT     H1 2685   1.495   3.743   0.989
  761WAT     H2 2686   1.501   3.650   0.869
  762WAT      O 2687   1.797   3.407   5.675
  762WAT     H1 2688   1.857   3.481   5.668
  762WAT     H2 2689   1.801   3.364   5.589
  763WAT      O 2690   2.731   3.493   0.460
  763WAT     H1 2691   2.807   3.445   0.491
  763WAT     H2 2692   2.680   3.512   0.539
  764WAT      O 2693   4.961   4.687   1.897
  764WAT     H1 2694   4.908   4.633   1.839
  764WAT     H2 2695   4.991   4.759   1.842
  765WAT      O 2696   2.965   5.150   1.943
  765WAT     H1 2697   2.993   5.059   1.942
  765WAT     H2 2698   2.893   5.154   1.879
  766WAT      O 2699   2.565   3.693   2.022
  766WAT     H1 2700   2.518   3.637   2.084
  766WAT     H2 2701   2.497   3.751   1.987
  767WAT      O 2702   7.203   1.251   5.500
  767WAT     H1 2703   7.126   1.195   5.498
  767WAT     H2 2704   7.277   1.190   5.492
  768WAT      O 2705   3.564   0.362   0.066
  768WAT     H1 2706   3.523   0.397  -0.013
  768WAT     H2 2707   3.638   0.311   0.034
  769WAT      O 2708   5.779   3.946   4.039
  769WAT     H1 2709   5.826   3.952   3.956
  769WAT     H2 2710   5.801   3.860   4.074
  770WAT      O 2711   4.842   0.714   3.767
  770WAT     H1 2712   4.761   0.665   3.755
  770WAT     H2 2713   4.841   0.780   3.698
  771WAT      O 2714   2.572   6.555   1.182
  771WAT     H1 2715   2.550   6.580   1.092
  771WAT     H2 2716   2.499   6.501   1.210
  772WAT      O 2717   1.827   6.750   0.272
  772WAT     H1 2718   1.875   6.806   0.212
  772WAT     H2 2719   1.761   6.807   0.312
  773WAT      O 2720   0.916   4.496   3.032
  773WAT     H1 2721   0.973   4.465   3.103
  773WAT     H2 2722   0.890   4.416   2.987
  774WAT      O 2723   5.811   7.008   0.091
  774WAT     H1 2724   5.773   7.063   0.023
  774WAT     H2 2725   5.748   6.938   0.104
  775WAT      O 2726   6.238   0.172   1.286
  775WAT     H1 2727   6.280   0.222   1.216
  775WAT     H2 2728   6.178   0.235   1.328
  776WAT      O 2729   6.006   3.080   4.317
  776WAT     H1 2730   6.099   3.070   4.337
  776WAT     H2 2731   5.995   3.174   4.303
  777WAT      O 2732   7.359   1.280   4.211
  777WAT     H1 2733   7.423   1.318   4.271
  777WAT     H2 2734   7.410   1.221   4.156
  778WAT      O 2735   2.841   1.370   2.001
  778WAT     H1 2736   2.832   1.315   2.079
  778WAT     H2 2737   2.911   1.431   2.023
  779WAT      O 2738   4.512   5.559   1.902
  779WAT     H1 2739   4.590   5.538   1.849
  779WAT     H2 2740   4.475   5.637   1.861
  780WAT      O 2741   3.146   3.149   1.345
  780WAT     H1 2742   3.167   3.242   1.340
  780WAT     H2 2743   3.120   3.135   1.437
  781WAT      O 2744   2.512   5.130   5.723
  781WAT     H1 2745   2.447   5.066   5.694
  781WAT     H2 2746   2.555   5.158   5.643
  782WAT      O 2747   6.844   3.416   5.106
  782WAT     H1 2748   6.878   3.496   5.065
  782WAT     H2 2749   6.812   3.363   5.032
  783WAT      O 2750   5.866   0.289   1.584
  783WAT     H1 2751   5.786   0.271   1.534
  783WAT     H2 2752   5.850   0.250   1.670
  784WAT      O 2753   5.700   3.794   2.051
  784WAT     H1 2754   5.644   3.857   2.006
  784WAT     H2 2755   5.767   3.772   1.988
  785WAT      O 2756   1.555   3.704   5.370
  785WAT     H1 2757   1.472   3.660   5.351
  785WAT     H2 2758   1.581   3.743   5.286
  786WAT      O 2759   5.872   5.537   4.541
  786WAT     H1 2760   5.921   5.473   4.490
  786WAT     H2 2761   5.926   5.555   4.617
  787WAT      O 2762   3.202   4.745   1.615
  787WAT     H1 2763   3.261   4.795   1.559
  787WAT     H2 2764   3.166   4.810   1.675
  788WAT      O 2765   0.228   2.186   0.662
  788WAT     H1 2766   0.217   2.195   0.756
  788WAT     H2 2767   0.259   2.096   0.650
  789WAT      O 2768   3.873   3.334   4.953
  789WAT     H1 2769   3.966   3.312   4.959
  789WAT     H2 2770   3.866   3.389   4.875
  790WAT      O 2771   6.217   6.780   1.787
  790WAT     H1 2772   6.296   6.739   1.752
  790WAT     H2 2773   6.163   6.798   1.710
  791WAT      O 2774   5.955   1.089   4.306
  791WAT     H1 2775   6.027   1.111   4.247
  791WAT     H2 2776   5.890   1.158   4.292
  792WAT      O 2777   4.790   0.038   1.634
  792WAT     H1 2778   4.837  -0.022   1.576
  792WAT     H2 2779   4.788  -0.008   1.719
  793WAT      O 2780   2.011   4.658   0.675
  793WAT     H1 2781   2.100   4.647   0.643
  793WAT     H2 2782   1.998   4.586   0.737
  794WAT      O 2783   3.280   4.016   5.819
  794WAT     H1 2784   3.187   4.004   5.799
  794WAT     H2 2785   3.325   3.976   5.744
  795WAT      O 2786   7.358   1.574   2.106
  795WAT     H1 2787   7.357   1.636   2.033
  795WAT     H2 2788   7.419   1.613   2.169
  796WAT      O 2789   2.174   6.974   2.916
  796WAT     H1 2790   2.163   7.057   2.871
  796WAT     H2 2791   2.183   6.909   2.846
  797WAT      O 2792   6.562   4.274   4.695
  797WAT     H1 2793   6.496   4.219   4.654
  797WAT     H2 2794   6.641   4.261   4.642
  798WAT      O 2795   5.217   6.267   2.180
  798WAT     H1 2796   5.310   6.257   2.201
  798WAT     H2 2797   5.172   6.218   2.249
  799WAT      O 2798   5.621   0.171   1.664
  799WAT     H1 2799   5.553   0.104   1.661
  799WAT     H2 2800   5.594   0.236   1.599
  800WAT      O 2801   3.654   1.643   0.322
  800WAT     H1 2802   3.581   1.638   0.261
  800WAT     H2 2803   3.638   1.723   0.373
  801WAT      O 2804   7.293   4.796   1.271
  801WAT     H1 2805   7.376   4.760   1.240
  801WAT     H2 2806   7.240   4.806   1.192
  802WAT      O 2807   6.603   1.794   0.183
  802WAT     H1 2808   6.604   1.780   0.278
  802WAT     H2 2809   6.674   1.739   0.149
  803WAT      O 2810   7.467   6.754   3.288
  803WAT     H1 2811   7.395   6.816   3.293
  803WAT     H2 2812   7.450   6.703   3.209
  804WAT      O 2813   7.359   0.838   5.612
  804WAT     H1 2814   7.398   0.925   5.609
  804WAT     H2 2815   7.311   0.831   5.530
  805WAT      O 2816   1.328   0.535   4.455
  805WAT     H1 2817   1.281   0.452   4.466
  805WAT     H2 2818   1.278   0.597   4.508
  806WAT      O 2819   1.369   2.990   2.271
  806WAT     H1 2820   1.319   3.069   2.251
  806WAT     H2 2821   1.429   2.980   2.198
  807WAT      O 2822   0.700   2.908   2.300
  807WAT     H1 2823   0.741   2.988   2.333
  807WAT     H2 2824   0.652   2.936   2.222
  808WAT      O 2825   0.189   1.623   4.552
  808WAT     H1 2826   0.278   1.652   4.532
  808WAT     H2 2827   0.132   1.683   4.503
  809WAT      O 2828   1.175   3.485   3.369
  809WAT     H1 2829   1.123   3.408   3.392
  809WAT     H2 2830   1.142   3.511   3.283
  810WAT      O 2831   3.218   1.237   5.351
  810WAT     H1 2832   3.161   1.219   5.276
  810WAT     H2 2833   3.190   1.322   5.384
  811WAT      O 2834   5.331   1.042   5.360
  811WAT     H1 2835   5.365   0.967   5.313
  811WAT     H2 2836   5.236   1.033   5.355
  812WAT      O 2837   4.140   1.000   4.512
  812WAT     H1 2838   4.114   1.002   4.420
  812WAT     H2 2839   4.062   1.030   4.559
  813WAT      O 2840   1.812   1.786   2.950
  813WAT     H1 2841   1.781   1.830   3.029
  813WAT     H2 2842   1.891   1.833   2.925
  814WAT      O 2843   1.188   6.120   5.510
  814WAT     H1 2844   1.240   6.092   5.434
  814WAT     H2 2845   1.141   6.042   5.537
  815WAT      O 2846   7.587   3.021   3.318
  815WAT     H1 2847   7.620   3.099   3.363
  815WAT     H2 2848   7.662   2.990   3.266
  816WAT      O 2849   5.817   0.110   5.429
  816WAT     H1 2850   5.873   0.147   5.360
  816WAT     H2 2851   5.872   0.111   5.507
  817WAT      O 2852   4.723   5.844   5.415
  817WAT     H1 2853   4.704   5.782   5.345
  817WAT     H2 2854   4.761   5.790   5.484
  818WAT      O 2855   6.030   3.566   3.973
  818WAT     H1 2856   6.103   3.505   3.981
  818WAT     H2 2857   6.067   3.651   3.996
  819WAT      O 2858   6.708   3.140   1.107
  819WAT     H1 2859   6.642   3.070   1.108
  819WAT     H2 2860   6.683   3.195   1.033
  820WAT      O 2861   4.290   0.226   2.644
  820WAT     H1 2862   4.223   0.216   2.712
  820WAT     H2 2863   4.370   0.246   2.692
  821WAT      O 2864   1.356   3.131   5.987
  821WAT     H1 2865   1.438   3.168   5.955
  821WAT     H2 2866   1.383   3.055   6.039
  822WAT      O 2867   1.194   6.635   3.736
  822WAT     H1 2868   1.215   6.709   3.680
  822WAT     H2 2869   1.112   6.600   3.700
  823WAT      O 2870   5.942   0.430   4.962
  823WAT     H1 2871   5.954   0.335   4.952
  823WAT     H2 2872   5.886   0.455   4.888
  824WAT      O 2873   0.398   5.880   5.825
  824WAT     H1 2874   0.358   5.793   5.826
  824WAT     H2 2875   0.482   5.867   5.782
  825WAT      O 2876   0.702   2.689   4.984
  825WAT     H1 2877   0.742   2.615   5.029
  825WAT     H2 2878   0.609   2.667   4.978
  826WAT      O 2879   6.123   1.957   3.076
  826WAT     H1 2880   6.044   2.011   3.076
  826WAT     H2 2881   6.110   1.895   3.148
  827WAT      O 2882   2.661   1.004   0.885
  827WAT     H1 2883   2.710   0.948   0.825
  827WAT     H2 2884   2.656   0.954   0.967
  828WAT      O 2885   1.813   5.159   5.937
  828WAT     H1 2886   1.758   5.204   5.873
  828WAT     H2 2887   1.771   5.074   5.949
  829WAT      O 2888   5.713   4.628   5.212
  829WAT     H1 2889   5.633   4.595   5.171
  829WAT     H2 2890   5.783   4.577   5.172
  830WAT      O 2891   6.705   6.926   1.008
  830WAT     H1 2892   6.801   6.925   1.004
  830WAT     H2 2893   6.680   7.007   0.963
  831WAT      O 2894   4.471   0.519   3.976
  831WAT     H1 2895   4.501   0.429   3.967
  831WAT     H2 2896   4.531   0.570   3.922
  832WAT      O 2897   5.256   6.913   0.948
  832WAT     H1 2898   5.189   6.844   0.947
  832WAT     H2 2899   5.249   6.954   0.862
  833WAT      O 2900   2.982   4.992   0.191
  833WAT     H1 2901   3.067   4.998   0.233
  833WAT     H2 2902   2.961   5.082   0.166
  834WAT      O 2903   6.855   2.970   0.754
  834WAT     H1 2904   6.920   3.019   0.704
  834WAT     H2 2905   6.771   3.008   0.729
  835WAT      O 2906   5.124   2.469   0.852
  835WAT     H1 2907   5.067   2.393   0.860
  835WAT     H2 2908   5.105   2.505   0.765
  836WAT      O 2909   4.743   6.212   5.863
  836WAT     H1 2910   4.650   6.208   5.840
  836WAT     H2 2911   4.783   6.140   5.813
  837WAT      O 2912   7.496   2.090   3.763
  837WAT     H1 2913   7.419   2.033   3.766
  837WAT     H2 2914   7.519   2.094   3.670
  838WAT      O 2915   0.051   5.169   0.910
  838WAT     H1 2916   0.064   5.263   0.920
  838WAT     H2 2917  -0.012   5.160   0.839
  839WAT      O 2918   5.809   2.064   1.645
  839WAT     H1 2919   5.832   2.022   1.728
  839WAT     H2 2920   5.872   2.135   1.637
  840WAT      O 2921   2.421   4.225   3.862
  840WAT     H1 2922   2.332   4.261   3.862
  840WAT     H2 2923   2.457   4.250   3.947
  841WAT      O 2924   6.153   6.588   5.389
  841WAT     H1 2925   6.187   6.587   5.479
  841WAT     H2 2926   6.061   6.562   5.398
  842WAT      O 2927   7.067   0.177   5.634
  842WAT     H1 2928   6.997   0.198   5.573
  842WAT     H2 2929   7.026   0.178   5.720
  843WAT      O 2930   6.244   3.190   2.655
  843WAT     H1 2931   6.189   3.220   2.583
  843WAT     H2 2932   6.325   3.160   2.613
  844WAT      O 2933   3.004   3.134   5.177
  844WAT     H1 2934   3.092   3.096   5.181
  844WAT     H2 2935   3.018   3.228   5.187
  845WAT      O 2936   6.022   5.508   1.398
  845WAT     H1 2937   5.989   5.597   1.385
  845WAT     H2 2938   6.005   5.463   1.316
  846WAT      O 2939   1.799   1.826   1.847
  846WAT     H1 2940   1.850   1.753   1.811
  846WAT     H2 2941   1.710   1.792   1.854
  847WAT      O 2942   3.380   2.855   4.535
  847WAT     H1 2943   3.447   2.922   4.520
  847WAT     H2 2944   3.404   2.784   4.475
  848WAT      O 2945   0.998   5.498   1.637
  848WAT     H1 2946   1.073   5.456   1.594
  848WAT     H2 2947   0.946   5.424   1.670
  849WAT      O 2948   3.135   1.320   4.375
  849WAT     H1 2949   3.099   1.409   4.363
  849WAT     H2 2950   3.061   1.269   4.407
  850WAT      O 2951   7.343   7.152   1.892
  850WAT     H1 2952   7.330   7.062   1.923
  850WAT     H2 2953   7.290   7.206   1.951
  851WAT      O 2954   3.717   0.070   4.645
  851WAT     H1 2955   3.672   0.152   4.627
  851WAT     H2 2956   3.650   0.003   4.636
  852WAT      O 2957   3.230   7.098   2.699
  852WAT     H1 2958   3.284   7.156   2.752
  852WAT     H2 2959   3.179   7.157   2.643
  853WAT      O 2960   2.755   5.971   3.466
  853WAT     H1 2961   2.702   5.944   3.391
  853WAT     H2 2962   2.800   6.050   3.436
  854WAT      O 2963   1.655   3.912   3.565
  854WAT     H1 2964   1.603   3.932   3.487
  854WAT     H2 2965   1.741   3.889   3.531
  855WAT      O 2966   5.763   5.229   3.684
  855WAT     H1 2967   5.699   5.285   3.728
  855WAT     H2 2968   5.779   5.272   3.600
  856WAT      O 2969   6.274   5.663   2.185
  856WAT     H1 2970   6.263   5.660   2.280
  856WAT     H2 2971   6.248   5.576   2.156
  857WAT      O 2972   6.404   1.508   3.231
  857WAT     H1 2973   6.490   1.476   3.258
  857WAT     H2 2974   6.380   1.454   3.156
  858WAT      O 2975   1.172   5.206   2.640
  858WAT     H1 2976   1.224   5.284   2.624
  858WAT     H2 2977   1.136   5.182   2.555
  859WAT      O 2978   6.596   1.782   1.311
  859WAT     H1 2979   6.683   1.742   1.317
  859WAT     H2 2980   6.589   1.807   1.219
  860WAT      O 2981   2.288   0.525   0.762
  860WAT     H1 2982   2.300   0.476   0.843
  860WAT     H2 2983   2.276   0.616   0.790
  861WAT      O 2984   0.092   3.609   5.884
  861WAT     H1 2985   0.155   3.673   5.852
  861WAT     H2 2986   0.145   3.535   5.912
  862WAT      O 2987   2.200   2.515   2.708
  862WAT     H1 2988   2.152   2.596   2.723
  862WAT     H2 2989   2.250   2.531   2.628
  863WAT      O 2990   4.870   6.491   4.995
  863WAT     H1 2991   4.871   6.563   5.058
  863WAT     H2 2992   4.913   6.526   4.917
  864WAT      O 2993   7.039   0.638   1.252
  864WAT     H1 2994   7.126   0.666   1.282
  864WAT     H2 2995   7.020   0.696   1.178
  865WAT      O 2996   5.810   3.722   0.495
  865WAT     H1 2997   5.801   3.781   0.571
  865WAT     H2 2998   5.771   3.771   0.423
  866WAT      O 2999   4.400   1.747   2.534
  866WAT     H1 3000   4.338   1.706   2.473
  866WAT     H2 3001   4.423   1.830   2.493
  867WAT      O 3002   5.723   2.105   0.723
  867WAT     H1 3003   5.668   2.173   0.684
  867WAT     H2 3004   5.799   2.101   0.665
  868WAT      O 3005   4.199   0.054   5.102
  868WAT     H1 3006   4.291   0.027   5.107
  868WAT     H2 3007   4.172   0.064   5.194
  869WAT      O 3008   3.599   1.695   0.651
  869WAT     H1 3009   3.655   1.642   0.595
  869WAT     H2 3010   3.569   1.766   0.595
  870WAT      O 3011   0.230   7.124   3.951
  870WAT     H1 3012   0.278   7.133   3.869
  870WAT     H2 3013   0.243   7.208   3.996
  871WAT      O 3014   1.971   5.788   2.269
  871WAT     H1 3015   1.958   5.860   2.331
  871WAT     H2 3016   1.894   5.791   2.212
  872WAT      O 3017   1.673   7.051   3.472
  872WAT     H1 3018   1.697   6.959   3.472
  872WAT     H2 3019   1.748   7.096   3.433
  873WAT      O 3020   4.069   0.905   4.042
  873WAT     H1 3021   4.123   0.832   4.070
  873WAT     H2 3022   4.069   0.966   4.116
  874WAT      O 3023   3.070   1.664   3.795
  874WAT     H1 3024   3.043   1.652   3.704
  874WAT     H2 3025   3.012   1.732   3.829
  875WAT      O 3026   3.675   6.888   3.408
  875WAT     H1 3027   3.664   6.816   3.346
  875WAT     H2 3028   3.593   6.891   3.457
  876WAT      O 3029   3.833   5.072   1.825
  876WAT     H1 3030   3.830   5.167   1.838
  876WAT     H2 3031   3.794   5.036   1.904
  877WAT      O 3032   5.686   2.391   4.415
  877WAT     H1 3033   5.619   2.345   4.466
  877WAT     H2 3034   5.693   2.341   4.334
  878WAT      O 3035   1.600   0.797   2.123
  878WAT     H1 3036   1.686   0.757   2.110
  878WAT     H2 3037   1.540   0.743   2.073
  879WAT      O 3038   4.323   6.030   3.973
  879WAT     H1 3039   4.400   6.086   3.979
  879WAT     H2 3040   4.336   5.978   3.893
  880WAT      O 3041   3.228   1.503   3.200
  880WAT     H1 3042   3.170   1.478   3.128
  880WAT     H2 3043   3.174   1.489   3.279
  881WAT      O 3044   1.617   4.112   5.040
  881WAT     H1 3045   1.698   4.153   5.071
  881WAT     H2 3046   1.635   4.090   4.949
  882WAT      O 3047   5.847   0.838   4.325
  882WAT     H1 3048   5.890   0.922   4.336
  882WAT     H2 3049   5.758   0.853   4.357
  883WAT      O 3050   4.482   1.025   5.481
  883WAT     H1 3051   4.573   1.051   5.469
  883WAT     H2 3052   4.463   0.967   5.407
  884WAT      O 3053   1.063   4.778   4.406
  884WAT     H1 3054   1.075   4.688   4.376
  884WAT     H2 3055   1.002   4.771   4.480
  885WAT      O 3056   0.895   1.178   0.111
  885WAT     H1 3057   0.927   1.098   0.153
  885WAT     H2 3058   0.945   1.249   0.151
  886WAT      O 3059   2.302   1.407   2.318
  886WAT     H1 3060   2.317   1.394   2.224
  886WAT     H2 3061   2.328   1.324   2.358
  887WAT      O 3062   7.186   1.837   0.472
  887WAT     H1 3063   7.105   1.788   0.456
  887WAT     H2 3064   7.226   1.846   0.385
  888WAT      O 3065   6.934   4.799   1.304
  888WAT     H1 3066   6.963   4.888   1.321
  888WAT     H2 3067   6.882   4.775   1.382
  889WAT      O 3068   1.340   6.016   5.314
  889WAT     H1 3069   1.311   6.021   5.223
  889WAT     H2 3070   1.396   5.939   5.317
  890WAT      O 3071   1.780   6.586   0.040
  890WAT     H1 3072   1.789   6.674   0.002
  890WAT     H2 3073   1.748   6.601   0.129
  891WAT      O 3074   0.617   2.473   2.710
  891WAT     H1 3075   0.604   2.440   2.621
  891WAT     H2 3076   0.705   2.510   2.709
  892WAT      O 3077   0.422   1.424   4.983
  892WAT     H1 3078   0.477   1.448   4.908
  892WAT     H2 3079   0.334   1.448   4.957
  893WAT      O 3080   1.562   5.750   2.781
  893WAT     H1 3081   1.481   5.717   2.741
  893WAT     H2 3082   1.610   5.790   2.708
  894WAT      O 3083   5.780   3.871   4.990
  894WAT     H1 3084   5.816   3.919   4.915
  894WAT     H2 3085   5.815   3.782   4.980
  895WAT      O 3086   1.419   4.082   4.263
  895WAT     H1 3087   1.350   4.136   4.300
  895WAT     H2 3088   1.399   4.078   4.169
  896WAT      O 3089   3.239   1.744   4.716
  896WAT     H1 3090   3.207   1.784   4.635
  896WAT     H2 3091   3.332   1.726   4.699
  897WAT      O 3092   0.178   6.772   1.883
  897WAT     H1 3093   0.100   6.717   1.894
  897WAT     H2 3094   0.179   6.795   1.791
  898WAT      O 3095   1.998   6.318   4.811
  898WAT     H1 3096   2.015   6.272   4.729
  898WAT     H2 3097   1.903   6.333   4.811
  899WAT      O 3098   4.792   3.652   0.081
  899WAT     H1 3099   4.755   3.619  -0.001
  899WAT     H2 3100   4.885   3.632   0.074
  900WAT      O 3101   1.389   0.060   0.566
  900WAT     H1 3102   1.420   0.069   0.476
  900WAT     H2 3103   1.333  -0.018   0.565
  901WAT      O 3104   1.477   3.956   3.370
  901WAT     H1 3105   1.514   3.958   3.282
  901WAT     H2 3106   1.396   3.906   3.360
  902WAT      O 3107   6.262   6.201   2.677
  902WAT     H1 3108   6.179   6.226   2.636
  902WAT     H2 3109   6.324   6.268   2.648
  903WAT      O 3110   0.711   3.041   0.711
  903WAT     H1 3111   0.626   3.045   0.667
  903WAT     H2 3112   0.762   2.980   0.658
  904WAT      O 3113   7.633   1.528   4.738
  904WAT     H1 3114   7.706   1.525   4.675
  904WAT     H2 3115   7.563   1.573   4.692
  905WAT      O 3116   6.877   2.619   1.399
  905WAT     H1 3117   6.888   2.685   1.467
  905WAT     H2 3118   6.818   2.660   1.335
  906WAT      O 3119   4.652   6.519   4.811
  906WAT     H1 3120   4.737   6.550   4.843
  906WAT     H2 3121   4.656   6.533   4.716
  907WAT      O 3122   4.876   5.804   0.806
  907WAT     H1 3123   4.894   5.895   0.782
  907WAT     H2 3124   4.857   5.808   0.900
  908WAT      O 3125   7.557   6.440   3.242
  908WAT     H1 3126   7.515   6.370   3.292
  908WAT     H2 3127   7.486   6.496   3.214
  909WAT      O 3128   4.236   5.843   4.248
  909WAT     H1 3129   4.205   5.924   4.206
  909WAT     H2 3130   4.304   5.872   4.308
  910WAT      O 3131   0.908   5.897   1.432
  910WAT     H1 3132   0.832   5.954   1.443
  910WAT     H2 3133   0.871   5.808   1.426
  911WAT      O 3134   1.968   0.547   0.326
  911WAT     H1 3135   1.895   0.545   0.387
  911WAT     H2 3136   1.977   0.639   0.301
  912WAT      O 3137   4.640   1.356   3.622
  912WAT     H1 3138   4.631   1.267   3.587
  912WAT     H2 3139   4.604   1.412   3.552
  913WAT      O 3140   3.599   4.219   3.764
  913WAT     H1 3141   3.509   4.253   3.761
  913WAT     H2 3142   3.627   4.215   3.673
  914WAT      O 3143   0.382   3.053   2.378
  914WAT     H1 3144   0.287   3.060   2.376
  914WAT     H2 3145   0.413   3.142   2.363
  915WAT      O 3146   3.122   5.861   2.590
  915WAT     H1 3147   3.153   5.785   2.541
  915WAT     H2 3148   3.049   5.828   2.642
  916WAT      O 3149   4.566   1.057   0.197
  916WAT     H1 3150   4.480   1.077   0.234
  916WAT     H2 3151   4.563   0.963   0.179
  917WAT      O 3152   6.142   6.451   4.711
  917WAT     H1 3153   6.206   6.496   4.656
  917WAT     H2 3154   6.181   6.452   4.799
  918WAT      O 3155   2.509   3.049   1.232
  918WAT     H1 3156   2.510   3.106   1.154
  918WAT     H2 3157   2.539   2.964   1.200
  919WAT      O 3158   3.787   2.858   1.496
  919WAT     H1 3159   3.703   2.813   1.508
  919WAT     H2 3160   3.784   2.892   1.407
  920WAT      O 3161   4.292   2.057   1.236
  920WAT     H1 3162   4.219   2.117   1.224
  920WAT     H2 3163   4.367   2.101   1.196
  921WAT      O 3164   1.741   1.973   0.230
  921WAT     H1 3165   1.768   2.039   0.293
  921WAT     H2 3166   1.776   2.003   0.147
  922WAT      O 3167   5.489   6.895   3.739
  922WAT     H1 3168   5.478   6.928   3.828
  922WAT     H2 3169   5.542   6.963   3.696
  923WAT      O 3170   3.821   4.512   5.761
  923WAT     H1 3171   3.844   4.440   5.820
  923WAT     H2 3172   3.903   4.535   5.719
  924WAT      O 3173   0.981   1.731   5.774
  924WAT     H1 3174   1.048   1.797   5.789
  924WAT     H2 3175   0.929   1.765   5.702
  925WAT      O 3176   3.302   2.977   1.591
  925WAT     H1 3177   3.320   2.905   1.651
  925WAT     H2 3178   3.255   3.041   1.644
  926WAT      O 3179   5.911   0.164   0.139
  926WAT     H1 3180   5.944   0.242   0.093
  926WAT     H2 3181   5.904   0.097   0.071
  927WAT      O 3182   4.736   5.988   4.742
  927WAT     H1 3183   4.692   5.956   4.821
  927WAT     H2 3184   4.713   6.080   4.737
  928WAT      O 3185   3.972   4.962   1.410
  928WAT     H1 3186   3.948   4.875   1.379
  928WAT     H2 3187   3.912   4.980   1.483
  929WAT      O 3188   5.480   1.113   5.047
  929WAT     H1 3189   5.495   1.117   4.952
  929WAT     H2 3190   5.557   1.067   5.081
  930WAT      O 3191   0.484   6.155   0.479
  930WAT     H1 3192   0.399   6.179   0.516
  930WAT     H2 3193   0.540   6.139   0.554
  931WAT      O 3194   6.047   2.940   3.585
  931WAT     H1 3195   6.005   2.960   3.669
  931WAT     H2 3196   5.974   2.920   3.526
  932WAT      O 3197   3.421   1.318   2.519
  932WAT     H1 3198   3.335   1.355   2.537
  932WAT     H2 3199   3.437   1.258   2.591
  933WAT      O 3200   4.610   3.015   6.228
  933WAT     H1 3201   4.589   3.051   6.142
  933WAT     H2 3202   4.526   2.981   6.260
  934WAT      O 3203   3.118   0.765   5.931
  934WAT     H1 3204   3.180   0.733   5.996
  934WAT     H2 3205   3.032   0.747   5.969
  935WAT      O 3206   2.213   3.685   1.489
  935WAT     H1 3207   2.145   3.752   1.499
  935WAT     H2 3208   2.282   3.729   1.439
  936WAT      O 3209   7.498   1.411   5.478
  936WAT     H1 3210   7.579   1.368   5.504
  936WAT     H2 3211   7.433   1.341   5.472
  937WAT      O 3212   1.432   0.748   1.665
  937WAT     H1 3213   1.469   0.697   1.593
  937WAT     H2 3214   1.340   0.758   1.642
  938WAT      O 3215   0.115   4.649   4.372
  938WAT     H1 3216   0.085   4.591   4.302
  938WAT     H2 3217   0.120   4.735   4.331
  939WAT      O 3218   1.135   6.309   3.359
  939WAT     H1 3219   1.172   6.222   3.373
  939WAT     H2 3220   1.078   6.324   3.434
  940WAT      O 3221   5.559   2.011   1.201
  940WAT     H1 3222   5.575   2.101   1.230
  940WAT     H2 3223   5.554   2.018   1.105
  941WAT      O 3224   3.872   2.423   4.511
  941WAT     H1 3225   3.933   2.417   4.438
  941WAT     H2 3226   3.910   2.489   4.569
  942WAT      O 3227   1.199   3.911   4.280
  942WAT     H1 3228   1.263   3.870   4.221
  942WAT     H2 3229   1.121   3.922   4.227
  943WAT      O 3230   7.602   5.841   4.352
  943WAT     H1 3231   7.640   5.897   4.284
  943WAT     H2 3232   7.635   5.754   4.332
  944WAT      O 3233   3.693   5.772   5.070
  944WAT     H1 3234   3.626   5.769   5.139
  944WAT     H2 3235   3.649   5.816   4.996
  945WAT      O 3236   7.250   5.309   5.100
  945WAT     H1 3237   7.195   5.283   5.026
  945WAT     H2 3238   7.257   5.230   5.153
  946WAT      O 3239   6.788   1.103   2.534
  946WAT     H1 3240   6.804   1.172   2.597
  946WAT     H2 3241   6.814   1.022   2.578
  947WAT      O 3242   0.138   4.587   5.185
  947WAT     H1 3243   0.073   4.549   5.244
  947WAT     H2 3244   0.134   4.532   5.107
  948WAT      O 3245   3.487   3.097   1.109
  948WAT     H1 3246   3.567   3.069   1.064
  948WAT     H2 3247   3.438   3.146   1.044
  949WAT      O 3248   2.784   4.064   5.003
  949WAT     H1 3249   2.762   3.979   4.965
  949WAT     H2 3250   2.842   4.105   4.938
  950WAT      O 3251   2.834   1.107   6.227
  950WAT     H1 3252   2.866   1.027   6.268
  950WAT     H2 3253   2.804   1.081   6.140
  951WAT      O 3254   7.300   4.292   2.058
  951WAT     H1 3255   7.349   4.348   2.118
  951WAT     H2 3256   7.209   4.301   2.086
  952WAT      O 3257   0.918   2.553   1.311
  952WAT     H1 3258   0.875   2.561   1.227
  952WAT     H2 3259   0.976   2.630   1.316
  953WAT      O 3260   4.227   4.335   1.533
  953WAT     H1 3261   4.158   4.325   1.598
  953WAT     H2 3262   4.205   4.416   1.486
  954WAT      O 3263   5.381   1.525   3.958
  954WAT     H1 3264   5.405   1.523   4.051
  954WAT     H2 3265   5.286   1.537   3.958
  955WAT      O 3266   0.978   4.694   1.498
  955WAT     H1 3267   0.971   4.610   1.453
  955WAT     H2 3268   1.001   4.756   1.428
  956WAT      O 3269   4.092   3.586   0.053
  956WAT     H1 3270   4.057   3.654   0.110
  956WAT     H2 3271   4.018   3.526   0.040
  957WAT      O 3272   5.879   5.080   4.878
  957WAT     H1 3273   5.915   5.012   4.935
  957WAT     H2 3274   5.942   5.151   4.882
  958WAT      O 3275   5.140   6.974   1.430
  958WAT     H1 3276   5.046   6.990   1.429
  958WAT     H2 3277   5.150   6.887   1.470
  959WAT      O 3278   2.629   6.817   5.263
  959WAT     H1 3279   2.588   6.896   5.227
  959WAT     H2 3280   2.715   6.814   5.221
  960WAT      O 3281   4.762   3.346   1.998
  960WAT     H1 3282   4.687   3.298   2.033
  960WAT     H2 3283   4.740   3.361   1.906
  961WAT      O 3284   6.280   3.083   3.468
  961WAT     H1 3285   6.206   3.133   3.435
  961WAT     H2 3286   6.252   2.992   3.462
  962WAT      O 3287   2.595   2.773   3.815
  962WAT     H1 3288   2.590   2.844   3.878
  962WAT     H2 3289   2.688   2.762   3.798
  963WAT      O 3290   3.540   0.008   1.333
  963WAT     H1 3291   3.592  -0.043   1.396
  963WAT     H2 3292   3.580   0.095   1.333
  964WAT      O 3293   4.043   5.169   2.593
  964WAT     H1 3294   3.960   5.157   2.548
  964WAT     H2 3295   4.076   5.253   2.562
  965WAT      O 3296   0.094   1.500   1.922
  965WAT     H1 3297   0.183   1.467   1.909
  965WAT     H2 3298   0.096   1.537   2.010
  966WAT      O 3299   0.094   5.641   4.895
  966WAT     H1 3300   0.111   5.645   4.989
  966WAT     H2 3301   0.089   5.547   4.876
  967WAT      O 3302   1.144   1.445   0.957
  967WAT     H1 3303   1.071   1.385   0.941
  967WAT     H2 3304   1.220   1.387   0.969
  968WAT      O 3305   1.872   1.253   2.218
  968WAT     H1 3306   1.788   1.208   2.207
  968WAT     H2 3307   1.886   1.297   2.134
  969WAT      O 3308   2.889   0.918   4.520
  969WAT     H1 3309   2.921   0.926   4.431
  969WAT     H2 3310   2.813   0.860   4.513
  970WAT      O 3311   2.691   2.959   1.596
  970WAT     H1 3312   2.662   2.915   1.516
  970WAT     H2 3313   2.609   2.978   1.643
  971WAT      O 3314   6.426   0.782   2.732
  971WAT     H1 3315   6.487   0.709   2.743
  971WAT     H2 3316   6.428   0.799   2.637
  972WAT      O 3317   1.934   2.805   5.430
  972WAT     H1 3318   1.964   2.831   5.343
  972WAT     H2 3319   1.956   2.712   5.436
  973WAT      O 3320   0.138   4.094   0.163
  973WAT     H1 3321   0.088   4.154   0.107
  973WAT     H2 3322   0.142   4.013   0.112
  974WAT      O 3323   4.921   6.697   1.624
  974WAT     H1 3324   4.915   6.762   1.694
  974WAT     H2 3325   4.865   6.625   1.654
  975WAT      O 3326   5.228   4.036   4.635
  975WAT     H1 3327   5.293   4.105   4.618
  975WAT     H2 3328   5.275   3.954   4.617
  976WAT      O 3329   4.794   2.632   3.860
  976WAT     H1 3330   4.788   2.582   3.778
  976WAT     H2 3331   4.740   2.709   3.844
  977WAT      O 3332   2.189   0.910   5.099
  977WAT     H1 3333   2.151   0.982   5.151
  977WAT     H2 3334   2.116   0.850   5.084
  978WAT      O 3335   2.203   2.644   6.116
  978WAT     H1 3336   2.251   2.694   6.182
  978WAT     H2 3337   2.114   2.638   6.149
  979WAT      O 3338   2.396   4.872   5.609
  979WAT     H1 3339   2.487   4.880   5.580
  979WAT     H2 3340   2.400   4.806   5.679
  980WAT      O 3341   1.799   6.126   3.481
  980WAT     H1 3342   1.824   6.036   3.460
  980WAT     H2 3343   1.716   6.140   3.434
  981WAT      O 3344   7.443   3.155   5.150
  981WAT     H1 3345   7.500   3.135   5.076
  981WAT     H2 3346   7.369   3.095   5.141
  982WAT      O 3347   5.533   5.001   4.302
  982WAT     H1 3348   5.586   4.925   4.277
  982WAT     H2 3349   5.597   5.068   4.324
  983WAT      O 3350   5.055   1.686   2.370
  983WAT     H1 3351   5.097   1.657   2.288
  983WAT     H2 3352   4.966   1.652   2.364
  984WAT      O 3353   6.747   0.229   4.338
  984WAT     H1 3354   6.737   0.321   4.364
  984WAT     H2 3355   6.762   0.183   4.420
  985WAT      O 3356   1.678   6.005   0.294
  985WAT     H1 3357   1.583   6.002   0.284
  985WAT     H2 3358   1.693   6.042   0.381
  986WAT      O 3359   4.477   5.625   1.151
  986WAT     H1 3360   4.547   5.560   1.156
  986WAT     H2 3361   4.414   5.587   1.089
  987WAT      O 3362   6.426   3.777   2.109
  987WAT     H1 3363   6.400   3.745   2.023
  987WAT     H2 3364   6.497   3.838   2.092
  988WAT      O 3365   7.356   1.899   4.147
  988WAT     H1 3366   7.428   1.931   4.093
  988WAT     H2 3367   7.297   1.856   4.085
  989WAT      O 3368   6.902   1.011   0.061
  989WAT     H1 3369   6.969   1.076   0.039
  989WAT     H2 3370   6.882   1.027   0.154
  990WAT      O 3371   6.782   5.682   3.976
  990WAT     H1 3372   6.786   5.771   4.012
  990WAT     H2 3373   6.799   5.693   3.882
  991WAT      O 3374   4.183   2.287   3.860
  991WAT     H1 3375   4.229   2.359   3.816
  991WAT     H2 3376   4.153   2.231   3.789
  992WAT      O 3377   4.540   5.087   4.144
  992WAT     H1 3378   4.548   5.137   4.225
  992WAT     H2 3379   4.584   5.141   4.078
  993WAT      O 3380   6.643   0.779   4.567
  993WAT     H1 3381   6.549   0.789   4.587
  993WAT     H2 3382   6.687   0.828   4.637
  994WAT      O 3383   4.580   1.967   0.520
  994WAT     H1 3384   4.493   1.957   0.481
  994WAT     H2 3385   4.574   2.046   0.573
  995WAT      O 3386   2.801   4.404   4.792
  995WAT     H1 3387   2.710   4.409   4.823
  995WAT     H2 3388   2.796   4.355   4.710
  996WAT      O 3389   4.884   5.727   5.152
  996WAT     H1 3390   4.797   5.714   5.189
  996WAT     H2 3391   4.891   5.662   5.082
  997WAT      O 3392   4.796   1.721   5.426
  997WAT     H1 3393   4.868   1.678   5.381
  997WAT     H2 3394   4.753   1.651   5.474
  998WAT      O 3395   7.150   1.950   5.187
  998WAT     H1 3396   7.068   1.924   5.146
  998WAT     H2 3397   7.191   2.009   5.124
  999WAT      O 3398   7.550   4.245   1.928
  999WAT     H1 3399   7.533   4.165   1.877
  999WAT     H2 3400   7.465   4.289   1.932
 1000WAT      O 3401   0.573   5.685   1.587
 1000WAT     H1 3402   0.531   5.602   1.607
 1000WAT     H2 3403   0.533   5.748   1.648
 1001WAT      O 3404   0.665   1.008   4.468
 1001WAT     H1 3405   0.694   1.099   4.460
 1001WAT     H2 3406   0.714   0.974   4.544
 1002WAT      O 3407   5.560   2.873   1.509
 1002WAT     H1 3408   5.529   2.929   1.438
 1002WAT     H2 3409   5.644   2.840   1.478
 1003WAT      O 3410   3.004   2.878   4.018
 1003WAT     H1 3411   2.986   2.842   4.104
 1003WAT     H2 3412   2.918   2.903   3.983
 1004WAT      O 3413   6.642   4.173   2.156
 1004WAT     H1 3414   6.635   4.250   2.099
 1004WAT     H2 3415   6.622   4.206   2.243
 1005WAT      O 3416   6.708   3.044   0.032
 1005WAT     H1 3417   6.761   3.120   0.055
 1005WAT     H2 3418   6.626   3.082  -0.002
 1006WAT      O 3419   0.909   6.878   0.054
 1006WAT     H1 3420   0.936   6.966   0.078
 1006WAT     H2 3421   0.887   6.884  -0.039
 1007WAT      O 3422   1.287   4.087   5.441
 1007WAT     H1 3423   1.350   4.155   5.419
 1007WAT     H2 3424   1.247   4.062   5.358
 1008WAT      O 3425   3.096   6.941   4.311
 1008WAT     H1 3426   3.055   6.995   4.243
 1008WAT     H2 3427   3.141   6.872   4.262
 1009WAT      O 3428   3.544   5.396   4.436
 1009WAT     H1 3429   3.566   5.486   4.460
 1009WAT     H2 3430   3.484   5.366   4.505
 1010WAT      O 3431   4.224   5.161   1.933
 1010WAT     H1 3432   4.269   5.198   1.857
 1010WAT     H2 3433   4.233   5.229   2.000
 1011WAT      O 3434   6.654   5.552   2.993
 1011WAT     H1 3435   6.617   5.629   2.950
 1011WAT     H2 3436   6.748   5.558   2.975
 1012WAT      O 3437   5.788   5.844   2.553
 1012WAT     H1 3438   5.762   5.901   2.481
 1012WAT     H2 3439   5.836   5.900   2.613
 1013WAT      O 3440   6.097   3.855   4.697
 1013WAT     H1 3441   6.064   3.914   4.630
 1013WAT     H2 3442   6.089   3.767   4.658
 1014WAT      O 3443   6.356   1.425   4.139
 1014WAT     H1 3444   6.443   1.402   4.107
 1014WAT     H2 3445   6.333   1.353   4.199
 1015WAT      O 3446   7.138   6.149   1.344
 1015WAT     H1 3447   7.121   6.070   1.397
 1015WAT     H2 3448   7.082   6.138   1.267
 1016WAT      O 3449   2.829   3.659   2.638
 1016WAT     H1 3450   2.772   3.655   2.561
 1016WAT     H2 3451   2.888   3.584   2.627
 1017WAT      O 3452   4.593   0.747   1.124
 1017WAT     H1 3453   4.646   0.769   1.047
 1017WAT     H2 3454   4.657   0.730   1.193
 1018WAT      O 3455   6.600   3.532   2.683
 1018WAT     H1 3456   6.593   3.484   2.765
 1018WAT     H2 3457   6.550   3.481   2.620
 1019WAT      O 3458   3.003   1.720   0.710
 1019WAT     H1 3459   3.054   1.689   0.785
 1019WAT     H2 3460   3.057   1.701   0.634
 1020WAT      O 3461   2.367   5.515   4.374
 1020WAT     H1 3462   2.373   5.500   4.280
 1020WAT     H2 3463   2.458   5.511   4.405
 1021WAT      O 3464   1.164   6.283   4.628
 1021WAT     H1 3465   1.120   6.235   4.558
 1021WAT     H2 3466   1.151   6.375   4.605
 1022WAT      O 3467   3.568   4.478   5.968
 1022WAT     H1 3468   3.622   4.460   6.044
 1022WAT     H2 3469   3.524   4.395   5.949
 1023WAT      O 3470   0.127   5.694   3.527
 1023WAT     H1 3471   0.163   5.620   3.576
 1023WAT     H2 3472   0.145   5.770   3.582
 1024WAT      O 3473   2.256   3.556   4.405
 1024WAT     H1 3474   2.287   3.644   4.387
 1024WAT     H2 3475   2.336   3.503   4.413
 1025WAT      O 3476   6.907   1.998   0.116
 1025WAT     H1 3477   6.914   1.904   0.134
 1025WAT     H2 3478   6.925   2.005   0.022
 1026WAT      O 3479   4.586   0.349   4.323
 1026WAT     H1 3480   4.628   0.390   4.398
 1026WAT     H2 3481   4.576   0.257   4.348
 1027WAT      O 3482   4.993   5.526   1.884
 1027WAT     H1 3483   4.988   5.444   1.835
 1027WAT     H2 3484   5.037   5.586   1.825
 1028WAT      O 3485   6.895   4.656   5.040
 1028WAT     H1 3486   6.903   4.610   4.957
 1028WAT     H2 3487   6.812   4.625   5.077
 1029WAT      O 3488   3.777   2.059   5.981
 1029WAT     H1 3489   3.682   2.068   5.984
 1029WAT     H2 3490   3.795   2.026   5.893
 1030WAT      O 3491   5.732   6.555   2.748
 1030WAT     H1 3492   5.675   6.624   2.784
 1030WAT     H2 3493   5.717   6.559   2.654
 1031WAT      O 3494   5.940   1.021   3.430
 1031WAT     H1 3495   5.859   0.989   3.392
 1031WAT     H2 3496   6.009   0.969   3.388
 1032WAT      O 3497   3.300   6.396   5.258
 1032WAT     H1 3498   3.254   6.415   5.176
 1032WAT     H2 3499   3.297   6.478   5.307
 1033WAT      O 3500   0.477   4.235   3.936
 1033WAT     H1 3501   0.422   4.295   3.886
 1033WAT     H2 3502   0.520   4.181   3.870
 1034WAT      O 3503   7.419   5.004   2.871
 1034WAT     H1 3504   7.357   5.008   2.944
 1034WAT     H2 3505   7.492   4.952   2.906
 1035WAT      O 3506   3.631   2.629   2.988
 1035WAT     H1 3507   3.536   2.619   2.979
 1035WAT     H2 3508   3.658   2.552   3.039
 1036WAT      O 3509   5.503   5.791   1.341
 1036WAT     H1 3510   5.565   5.722   1.315
 1036WAT     H2 3511   5.546   5.872   1.315
 1037WAT      O 3512   0.484   1.256   1.677
 1037WAT     H1 3513   0.561   1.287   1.723
 1037WAT     H2 3514   0.502   1.163   1.660
 1038WAT      O 3515   2.901   4.108   1.965
 1038WAT     H1 3516   2.888   4.195   2.004
 1038WAT     H2 3517   2.833   4.102   1.898
 1039WAT      O 3518   1.444   3.904   0.188
 1039WAT     H1 3519   1.433   3.815   0.224
 1039WAT     H2 3520   1.523   3.898   0.134
 1040WAT      O 3521   6.946   3.047   5.597
 1040WAT     H1 3522   6.867   3.040   5.543
 1040WAT     H2 3523   6.975   3.137   5.586
 1041WAT      O 3524   4.592   3.229   0.075
 1041WAT     H1 3525   4.656   3.265   0.014
 1041WAT     H2 3526   4.635   3.152   0.113
 1042WAT      O 3527   1.893   1.254   1.426
 1042WAT     H1 3528   1.897   1.342   1.386
 1042WAT     H2 3529   1.981   1.218   1.412
 1043WAT      O 3530   0.960   6.913   4.422
 1043WAT     H1 3531   0.961   6.821   4.397
 1043WAT     H2 3532   0.989   6.960   4.344
 1044WAT      O 3533   5.934   0.881   5.512
 1044WAT     H1 3534   5.984   0.818   5.564
 1044WAT     H2 3535   5.848   0.841   5.502
 1045WAT      O 3536   3.129   1.080   4.818
 1045WAT     H1 3537   3.044   1.049   4.849
 1045WAT     H2 3538   3.176   1.105   4.897
 1046WAT      O 3539   1.102   3.971   0.518
 1046WAT     H1 3540   1.135   4.025   0.447
 1046WAT     H2 3541   1.011   3.996   0.528
 1047WAT      O 3542   7.219   6.990   5.477
 1047WAT     H1 3543   7.125   6.988   5.495
 1047WAT     H2 3544   7.259   6.941   5.548
 1048WAT      O 3545   0.402   0.684   5.658
 1048WAT     H1 3546   0.488   0.661   5.623
 1048WAT     H2 3547   0.411   0.775   5.686
 1049WAT      O 3548   6.131   4.225   1.563
 1049WAT     H1 3549   6.063   4.158   1.565
 1049WAT     H2 3550   6.107   4.283   1.491
 1050WAT      O 3551   6.789   4.432   3.944
 1050WAT     H1 3552   6.827   4.472   4.022
 1050WAT     H2 3553   6.784   4.339   3.966
 1051WAT      O 3554   0.213   7.025   5.599
 1051WAT     H1 3555   0.176   7.100   5.551
 1051WAT     H2 3556   0.298   7.010   5.557
 1052WAT      O 3557   3.917   4.551   0.709
 1052WAT     H1 3558   3.981   4.555   0.638
 1052WAT     H2 3559   3.912   4.459   0.733
 1053WAT      O 3560   5.287   5.363   0.439
 1053WAT     H1 3561   5.303   5.323   0.524
 1053WAT     H2 3562   5.348   5.320   0.380
 1054WAT      O 3563   3.837   3.562   1.254
 1054WAT     H1 3564   3.890   3.636   1.225
 1054WAT     H2 3565   3.759   3.566   1.199
 1055WAT      O 3566   2.271   7.168   0.851
 1055WAT     H1 3567   2.301   7.126   0.770
 1055WAT     H2 3568   2.331   7.243   0.862
 1056WAT      O 3569   0.475   6.270   0.128
 1056WAT     H1 3570   0.494   6.317   0.209
 1056WAT     H2 3571   0.389   6.230   0.143
 1057WAT      O 3572   4.071   1.208   6.022
 1057WAT     H1 3573   4.120   1.289   6.018
 1057WAT     H2 3574   4.062   1.189   6.116
 1058WAT      O 3575   7.387   5.174   0.466
 1058WAT     H1 3576   7.306   5.226   0.463
 1058WAT     H2 3577   7.438   5.207   0.392
 1059WAT      O 3578   1.739   5.260   3.103
 1059WAT     H1 3579   1.766   5.287   3.190
 1059WAT     H2 3580   1.735   5.342   3.053
 1060WAT      O 3581   5.659   0.308   4.279
 1060WAT     H1 3582   5.582   0.255   4.300
 1060WAT     H2 3583   5.660   0.311   4.183
 1061WAT      O 3584   1.486   0.309   6.229
 1061WAT     H1 3585   1.431   0.382   6.198
 1061WAT     H2 3586   1.462   0.235   6.173
 1062WAT      O 3587   4.797   4.505   1.769
 1062WAT     H1 3588   4.792   4.512   1.673
 1062WAT     H2 3589   4.834   4.419   1.785
 1063WAT      O 3590   7.325   6.115   3.099
 1063WAT     H1 3591   7.375   6.196   3.117
 1063WAT     H2 3592   7.258   6.113   3.167
 1064WAT      O 3593   5.088   2.329   2.891
 1064WAT     H1 3594   5.165   2.300   2.844
 1064WAT     H2 3595   5.044   2.249   2.919
 1065WAT      O 3596   6.424   3.698   4.146
 1065WAT     H1 3597   6.408   3.784   4.108
 1065WAT     H2 3598   6.431   3.639   4.070
 1066WAT      O 3599   7.038   5.140   1.819
 1066WAT     H1 3600   7.124   5.179   1.834
 1066WAT     H2 3601   6.985   5.210   1.782
 1067WAT      O 3602   1.952   0.055   4.141
 1067WAT     H1 3603   1.956  -0.036   4.112
 1067WAT     H2 3604   1.859   0.071   4.158
 1068WAT      O 3605   4.041   3.192   3.027
 1068WAT     H1 3606   4.124   3.144   3.030
 1068WAT     H2 3607   3.982   3.133   2.979
 1069WAT      O 3608   6.906   1.932   4.175
 1069WAT     H1 3609   6.882   2.007   4.122
 1069WAT     H2 3610   6.903   1.857   4.115
 1070WAT      O 3611   6.774   1.234   1.007
 1070WAT     H1 3612   6.859   1.207   1.041
 1070WAT     H2 3613   6.775   1.330   1.014
 1071WAT      O 3614   6.324   4.790   5.101
 1071WAT     H1 3615   6.295   4.775   5.011
 1071WAT     H2 3616   6.400   4.849   5.092
 1072WAT      O 3617   2.556   4.606   0.375
 1072WAT     H1 3618   2.610   4.534   0.343
 1072WAT     H2 3619   2.533   4.656   0.297
 1073WAT      O 3620   6.272   3.839   1.565
 1073WAT     H1 3621   6.274   3.910   1.630
 1073WAT     H2 3622   6.285   3.759   1.616
 1074WAT      O 3623   6.371   5.620   5.335
 1074WAT     H1 3624   6.358   5.540   5.387
 1074WAT     H2 3625   6.284   5.644   5.306
 1075WAT      O 3626   3.035   6.099   1.019
 1075WAT     H1 3627   3.086   6.164   0.971
 1075WAT     H2 3628   2.983   6.054   0.952
 1076WAT      O 3629   5.262   6.571   6.172
 1076WAT     H1 3630   5.336   6.550   6.113
 1076WAT     H2 3631   5.226   6.486   6.195
 1077WAT      O 3632   2.152   4.191   5.421
 1077WAT     H1 3633   2.126   4.113   5.371
 1077WAT     H2 3634   2.073   4.244   5.426
 1078WAT      O 3635   0.059   2.880   6.214
 1078WAT     H1 3636   0.100   2.955   6.171
 1078WAT     H2 3637  -0.034   2.903   6.218
 1079WAT      O 3638   6.101   0.745   2.117
 1079WAT     H1 3639   6.159   0.672   2.138
 1079WAT     H2 3640   6.075   0.730   2.026
 1080WAT      O 3641   4.394   2.877   0.802
 1080WAT     H1 3642   4.419   2.954   0.854
 1080WAT     H2 3643   4.440   2.804   0.842
 1081WAT      O 3644   6.747   1.204   5.923
 1081WAT     H1 3645   6.721   1.292   5.893
 1081WAT     H2 3646   6.832   1.189   5.882
 1082WAT      O 3647   1.024   2.139   2.368
 1082WAT     H1 3648   1.027   2.194   2.290
 1082WAT     H2 3649   1.031   2.201   2.441
 1083WAT      O 3650   1.842   6.967   2.025
 1083WAT     H1 3651   1.762   6.935   1.982
 1083WAT     H2 3652   1.913   6.935   1.969
 1084WAT      O 3653   6.460   1.693   2.607
 1084WAT     H1 3654   6.440   1.730   2.693
 1084WAT     H2 3655   6.375   1.661   2.574
 1085WAT      O 3656   5.793   1.525   5.760
 1085WAT     H1 3657   5.856   1.594   5.778
 1085WAT     H2 3658   5.788   1.522   5.664
 1086WAT      O 3659   4.449   6.155   5.558
 1086WAT     H1 3660   4.429   6.180   5.468
 1086WAT     H2 3661   4.379   6.094   5.582
 1087WAT      O 3662   1.819   3.615   3.132
 1087WAT     H1 3663   1.818   3.660   3.047
 1087WAT     H2 3664   1.836   3.523   3.110
 1088WAT      O 3665   0.185   3.409   1.173
 1088WAT     H1 3666   0.103   3.414   1.124
 1088WAT     H2 3667   0.251   3.442   1.112
 1089WAT      O 3668   4.060   1.999   4.700
 1089WAT     H1 3669   4.146   2.017   4.662
 1089WAT     H2 3670   4.013   2.082   4.693
 1090WAT      O 3671   6.144   6.891   3.280
 1090WAT     H1 3672   6.053   6.878   3.309
 1090WAT     H2 3673   6.145   6.855   3.191
 1091WAT      O 3674   2.709   0.714   3.650
 1091WAT     H1 3675   2.800   0.720   3.622
 1091WAT     H2 3676   2.697   0.789   3.708
 1092WAT      O 3677   1.735   3.920   4.865
 1092WAT     H1 3678   1.786   3.840   4.852
 1092WAT     H2 3679   1.644   3.894   4.854
 1093WAT      O 3680   4.926   5.996   3.252
 1093WAT     H1 3681   4.969   6.066   3.202
 1093WAT     H2 3682   4.949   5.916   3.206
 1094WAT      O 3683   5.554   4.785   4.937
 1094WAT     H1 3684   5.484   4.831   4.891
 1094WAT     H2 3685   5.543   4.693   4.912
 1095WAT      O 3686   2.088   6.656   5.618
 1095WAT     H1 3687   2.026   6.651   5.545
 1095WAT     H2 3688   2.060   6.587   5.678
 1096WAT      O 3689   0.806   2.482   0.514
 1096WAT     H1 3690   0.715   2.457   0.499
 1096WAT     H2 3691   0.843   2.409   0.563
 1097WAT      O 3692   5.409   4.692   2.010
 1097WAT     H1 3693   5.371   4.674   2.096
 1097WAT     H2 3694   5.401   4.787   2.001
 1098WAT      O 3695   7.613   0.722   5.660
 1098WAT     H1 3696   7.534   0.776   5.659
 1098WAT     H2 3697   7.590   0.644   5.608
 1099WAT      O 3698   1.189   0.677   0.135
 1099WAT     H1 3699   1.254   0.737   0.101
 1099WAT     H2 3700   1.236   0.626   0.202
 1100WAT      O 3701   4.753   3.207   5.312
 1100WAT     H1 3702   4.723   3.128   5.267
 1100WAT     H2 3703   4.676   3.264   5.314
 1101WAT      O 3704   7.545   1.233   5.230
 1101WAT     H1 3705   7.620   1.286   5.256
 1101WAT     H2 3706   7.481   1.296   5.197
 1102WAT      O 3707   6.677   1.846   2.586
 1102WAT     H1 3708   6.604   1.784   2.588
 1102WAT     H2 3709   6.638   1.930   2.610
 1103WAT      O 3710   3.164   1.741   3.519
 1103WAT     H1 3711   3.254   1.773   3.510
 1103WAT     H2 3712   3.169   1.648   3.499
 1104WAT      O 3713   5.343   2.538   4.034
 1104WAT     H1 3714   5.273   2.570   3.977
 1104WAT     H2 3715   5.390   2.474   3.981
 1105WAT      O 3716   6.472   4.221   3.409
 1105WAT     H1 3717   6.385   4.186   3.430
 1105WAT     H2 3718   6.457   4.277   3.333
 1106WAT      O 3719   1.407   6.080   0.297
 1106WAT     H1 3720   1.314   6.075   0.319
 1106WAT     H2 3721   1.425   6.173   0.288
 1107WAT      O 3722   0.474   3.375   1.758
 1107WAT     H1 3723   0.485   3.459   1.712
 1107WAT     H2 3724   0.531   3.315   1.711
 1108WAT      O 3725   6.264   4.947   0.223
 1108WAT     H1 3726   6.330   4.877   0.223
 1108WAT     H2 3727   6.310   5.024   0.256
 1109WAT      O 3728   5.826   2.088   1.343
 1109WAT     H1 3729   5.866   2.012   1.301
 1109WAT     H2 3730   5.793   2.055   1.426
 1110WAT      O 3731   0.859   5.398   0.196
 1110WAT     H1 3732   0.942   5.355   0.177
 1110WAT     H2 3733   0.796   5.356   0.137
 1111WAT      O 3734   1.624   2.165   5.034
 1111WAT     H1 3735   1.604   2.103   5.105
 1111WAT     H2 3736   1.632   2.110   4.956
 1112WAT      O 3737   4.259   1.285   5.091
 1112WAT     H1 3738   4.353   1.301   5.095
 1112WAT     H2 3739   4.232   1.323   5.007
 1113WAT      O 3740   0.143   4.980   3.964
 1113WAT     H1 3741   0.230   4.952   3.937
 1113WAT     H2 3742   0.120   5.050   3.902
 1114WAT      O 3743   2.399   5.301   4.953
 1114WAT     H1 3744   2.431   5.331   4.867
 1114WAT     H2 3745   2.388   5.381   5.004
 1115WAT      O 3746   5.589   6.465   0.901
 1115WAT     H1 3747   5.503   6.465   0.941
 1115WAT     H2 3748   5.613   6.558   0.894
 1116WAT      O 3749   5.406   5.661   5.064
 1116WAT     H1 3750   5.461   5.671   4.985
 1116WAT     H2 3751   5.317   5.668   5.032
 1117WAT      O 3752   4.490   0.059   2.471
 1117WAT     H1 3753   4.450   0.131   2.521
 1117WAT     H2 3754   4.415   0.012   2.433
 1118WAT      O 3755   1.020   0.990   3.199
 1118WAT     H1 3756   1.020   0.924   3.130
 1118WAT     H2 3757   1.100   0.972   3.248
 1119WAT      O 3758   7.514   2.253   1.600
 1119WAT     H1 3759   7.472   2.296   1.525
 1119WAT     H2 3760   7.513   2.160   1.578
 1120WAT      O 3761   7.441   6.792   2.075
 1120WAT     H1 3762   7.502   6.866   2.080
 1120WAT     H2 3763   7.355   6.833   2.065
 1121WAT      O 3764   0.060   3.419   1.580
 1121WAT     H1 3765   0.004   3.432   1.503
 1121WAT     H2 3766   0.108   3.501   1.589
 1122WAT      O 3767   4.840   2.682   1.619
 1122WAT     H1 3768   4.787   2.616   1.664
 1122WAT     H2 3769   4.790   2.763   1.629
 1123WAT      O 3770   5.011   5.523   1.064
 1123WAT     H1 3771   5.084   5.577   1.034
 1123WAT     H2 3772   4.992   5.465   0.991
 1124WAT      O 3773   5.473   1.288   5.770
 1124WAT     H1 3774   5.466   1.383   5.777
 1124WAT     H2 3775   5.559   1.268   5.807
 1125WAT      O 3776   4.279   2.427   1.262
 1125WAT     H1 3777   4.345   2.451   1.197
 1125WAT     H2 3778   4.203   2.481   1.241
 1126WAT      O 3779   3.472   5.503   3.325
 1126WAT     H1 3780   3.420   5.509   3.405
 1126WAT     H2 3781   3.408   5.487   3.256
 1127WAT      O 3782   4.935   1.559   0.141
 1127WAT     H1 3783   4.935   1.513   0.058
 1127WAT     H2 3784   4.846   1.549   0.175
 1128WAT      O 3785   4.661   2.844   5.370
 1128WAT     H1 3786   4.743   2.891   5.387
 1128WAT     H2 3787   4.666   2.765   5.424
 1129WAT      O 3788   3.449   1.174   5.796
 1129WAT     H1 3789   3.382   1.214   5.741
 1129WAT     H2 3790   3.428   1.080   5.795
 1130WAT      O 3791   4.251   2.951   2.727
 1130WAT     H1 3792   4.342   2.944   2.753
 1130WAT     H2 3793   4.253   2.981   2.636
 1131WAT      O 3794   0.898   4.160   1.088
 1131WAT     H1 3795   0.908   4.224   1.018
 1131WAT     H2 3796   0.850   4.088   1.047
 1132WAT      O 3797   7.026   5.904   3.993
 1132WAT     H1 3798   7.122   5.906   3.987
 1132WAT     H2 3799   6.998   5.864   3.911
 1133WAT      O 3800   0.834   3.195   2.119
 1133WAT     H1 3801   0.917   3.167   2.080
 1133WAT     H2 3802   0.784   3.230   2.045
 1134WAT      O 3803   3.156   5.344   1.158
 1134WAT     H1 3804   3.225   5.355   1.223
 1134WAT     H2 3805   3.140   5.249   1.156
 1135WAT      O 3806   0.866   3.170   1.270
 1135WAT     H1 3807   0.808   3.102   1.305
 1135WAT     H2 3808   0.874   3.234   1.340
 1136WAT      O 3809   1.380   6.307   0.553
 1136WAT     H1 3810   1.422   6.325   0.637
 1136WAT     H2 3811   1.348   6.218   0.561
 1137WAT      O 3812   5.940   5.332   5.824
 1137WAT     H1 3813   5.917   5.239   5.833
 1137WAT     H2 3814   6.035   5.332   5.813
 1138WAT      O 3815   7.531   5.617   3.967
 1138WAT     H1 3816   7.558   5.545   3.910
 1138WAT     H2 3817   7.465   5.578   4.025
 1139WAT      O 3818   5.932   2.822   2.536
 1139WAT     H1 3819   5.894   2.908   2.554
 1139WAT     H2 3820   5.860   2.770   2.502
 1140WAT      O 3821   5.825   5.166   4.384
 1140WAT     H1 3822   5.777   5.217   4.449
 1140WAT     H2 3823   5.867   5.232   4.328
 1141WAT      O 3824   2.697   2.108   2.538
 1141WAT     H1 3825   2.620   2.164   2.544
 1141WAT     H2 3826   2.663   2.019   2.540
 1142WAT      O 3827   6.559   0.050   4.233
 1142WAT     H1 3828   6.610   0.118   4.277
 1142WAT     H2 3829   6.624  -0.005   4.190
 1143WAT      O 3830   3.290   3.510   1.901
 1143WAT     H1 3831   3.209   3.489   1.947
 1143WAT     H2 3832   3.271   3.591   1.854
 1144WAT      O 3833   3.548   1.780   5.314
 1144WAT     H1 3834   3.531   1.700   5.265
 1144WAT     H2 3835   3.563   1.751   5.404
 1145WAT      O 3836   3.107   5.880   0.635
 1145WAT     H1 3837   3.089   5.882   0.541
 1145WAT     H2 3838   3.022   5.861   0.676
 1146WAT      O 3839   3.257   3.488   4.018
 1146WAT     H1 3840   3.307   3.412   4.047
 1146WAT     H2 3841   3.205   3.456   3.944
 1147WAT      O 3842   2.015   5.674   4.247
 1147WAT     H1 3843   2.099   5.718   4.233
 1147WAT     H2 3844   2.039   5.583   4.266
 1148WAT      O 3845   4.304   6.872   4.445
 1148WAT     H1 3846   4.280   6.849   4.355
 1148WAT     H2 3847   4.328   6.964   4.440
 1149WAT      O 3848   0.482   2.762   1.190
 1149WAT     H1 3849   0.390   2.775   1.165
 1149WAT     H2 3850   0.482   2.680   1.238
 1150WAT      O 3851   2.654   2.695   4.100
 1150WAT     H1 3852   2.576   2.645   4.123
 1150WAT     H2 3853   2.627   2.786   4.105
 1151WAT      O 3854   5.159   5.071   1.848
 1151WAT     H1 3855   5.076   5.041   1.810
 1151WAT     H2 3856   5.145   5.065   1.943
 1152WAT      O 3857   1.483   2.399   4.344
 1152WAT     H1 3858   1.450   2.333   4.406
 1152WAT     H2 3859   1.474   2.358   4.258
 1153WAT      O 3860   5.593   2.961   3.152
 1153WAT     H1 3861   5.647   2.906   3.209
 1153WAT     H2 3862   5.656   3.017   3.107
 1154WAT      O 3863   5.569   3.420   1.043
 1154WAT     H1 3864   5.536   3.508   1.060
 1154WAT     H2 3865   5.581   3.417   0.949
 1155WAT      O 3866   4.766   3.227   0.734
 1155WAT     H1 3867   4.750   3.193   0.646
 1155WAT     H2 3868   4.744   3.320   0.728
 1156WAT      O 3869   3.135   0.463   0.071
 1156WAT     H1 3870   3.193   0.402   0.115
 1156WAT     H2 3871   3.112   0.419  -0.011
 1157WAT      O 3872   1.813   6.714   1.080
 1157WAT     H1 3873   1.851   6.776   1.018
 1157WAT     H2 3874   1.814   6.761   1.164
 1158WAT      O 3875   5.793   4.357   1.081
 1158WAT     H1 3876   5.804   4.277   1.031
 1158WAT     H2 3877   5.731   4.334   1.150
 1159WAT      O 3878   4.541   3.097   3.159
 1159WAT     H1 3879   4.628   3.085   3.122
 1159WAT     H2 3880   4.547   3.179   3.209
 1160WAT      O 3881   6.933   2.188   0.777
 1160WAT     H1 3882   6.889   2.270   0.754
 1160WAT     H2 3883   7.026   2.205   0.758
 1161WAT      O 3884   0.625   2.324   3.125
 1161WAT     H1 3885   0.602   2.396   3.065
 1161WAT     H2 3886   0.560   2.329   3.194
 1162WAT      O 3887   4.019   0.042   0.484
 1162WAT     H1 3888   4.040  -0.028   0.422
 1162WAT     H2 3889   4.062   0.015   0.566
 1163WAT      O 3890   7.594   5.051   5.855
 1163WAT     H1 3891   7.576   4.987   5.787
 1163WAT     H2 3892   7.644   5.120   5.811
 1164WAT      O 3893   1.268   3.203   4.613
 1164WAT     H1 3894   1.225   3.140   4.555
 1164WAT     H2 3895   1.216   3.283   4.605
 1165WAT      O 3896   3.912   3.991   0.391
 1165WAT     H1 3897   3.831   4.003   0.441
 1165WAT     H2 3898   3.982   4.010   0.454
 1166WAT      O 3899   5.820   2.626   5.119
 1166WAT     H1 3900   5.777   2.543   5.140
 1166WAT     H2 3901   5.874   2.606   5.042
 1167WAT      O 3902   3.789   2.730   0.157
 1167WAT     H1 3903   3.701   2.713   0.190
 1167WAT     H2 3904   3.782   2.817   0.116
 1168WAT      O 3905   5.130   0.739   5.533
 1168WAT     H1 3906   5.072   0.684   5.480
 1168WAT     H2 3907   5.211   0.689   5.540
 1169WAT      O 3908   6.164   3.844   5.362
 1169WAT     H1 3909   6.210   3.920   5.326
 1169WAT     H2 3910   6.231   3.797   5.412
 1170WAT      O 3911   7.111   5.149   0.244
 1170WAT     H1 3912   7.112   5.138   0.149
 1170WAT     H2 3913   7.151   5.069   0.278
 1171WAT      O 3914   3.244   4.930   5.646
 1171WAT     H1 3915   3.276   4.876   5.718
 1171WAT     H2 3916   3.209   5.009   5.688
 1172WAT      O 3917   6.649   6.494   2.478
 1172WAT     H1 3918   6.648   6.576   2.429
 1172WAT     H2 3919   6.658   6.426   2.411
 1173WAT      O 3920   4.226   1.006   3.244
 1173WAT     H1 3921   4.241   1.070   3.313
 1173WAT     H2 3922   4.292   1.026   3.178
 1174WAT      O 3923   6.241   2.731   4.043
 1174WAT     H1 3924   6.238   2.637   4.060
 1174WAT     H2 3925   6.227   2.739   3.949
 1175WAT      O 3926   3.746   1.393   5.592
 1175WAT     H1 3927   3.745   1.363   5.683
 1175WAT     H2 3928   3.666   1.358   5.554
 1176WAT      O 3929   1.617   2.954   5.785
 1176WAT     H1 3930   1.559   2.899   5.837
 1176WAT     H2 3931   1.680   2.893   5.747
 1177WAT      O 3932   3.874   6.056   2.412
 1177WAT     H1 3933   3.889   5.999   2.337
 1177WAT     H2 3934   3.823   6.003   2.473
 1178WAT      O 3935   6.793   3.256   2.695
 1178WAT     H1 3936   6.754   3.207   2.623
 1178WAT     H2 3937   6.861   3.310   2.655
 1179WAT      O 3938   1.909   3.127   5.209
 1179WAT     H1 3939   1.958   3.046   5.221
 1179WAT     H2 3940   1.820   3.099   5.191
 1180WAT      O 3941   4.300   2.313   0.995
 1180WAT     H1 3942   4.369   2.264   1.039
 1180WAT     H2 3943   4.346   2.372   0.935
 1181WAT      O 3944   1.678   3.040   0.675
 1181WAT     H1 3945   1.709   3.084   0.596
 1181WAT     H2 3946   1.592   3.078   0.691
 1182WAT      O 3947   0.245   7.182   0.640
 1182WAT     H1 3948   0.227   7.233   0.719
 1182WAT     H2 3949   0.161   7.177   0.595
 1183WAT      O 3950   0.323   0.525   2.737
 1183WAT     H1 3951   0.348   0.436   2.712
 1183WAT     H2 3952   0.329   0.575   2.656
 1184WAT      O 3953   1.315   3.488   5.243
 1184WAT     H1 3954   1.264   3.569   5.235
 1184WAT     H2 3955   1.255   3.419   5.214
 1185WAT      O 3956   1.021   3.844   1.038
 1185WAT     H1 3957   0.996   3.901   0.966
 1185WAT     H2 3958   0.939   3.808   1.071
 1186WAT      O 3959   1.616   6.170   2.887
 1186WAT     H1 3960   1.637   6.160   2.794
 1186WAT     H2 3961   1.649   6.257   2.909
 1187WAT      O 3962   3.776   0.683   0.669
 1187WAT     H1 3963   3.814   0.633   0.598
 1187WAT     H2 3964   3.770   0.773   0.636
 1188WAT      O 3965   0.404   5.565   2.351
 1188WAT     H1 3966   0.377   5.634   2.291
 1188WAT     H2 3967   0.460   5.508   2.298
 1189WAT      O 3968   4.934   1.957   2.088
 1189WAT     H1 3969   4.907   1.979   1.999
 1189WAT     H2 3970   4.855   1.969   2.141
 1190WAT      O 3971   3.275   6.524   3.379
 1190WAT     H1 3972   3.357   6.501   3.336
 1190WAT     H2 3973   3.237   6.440   3.406
 1191WAT      O 3974   3.341   0.082   1.743
 1191WAT     H1 3975   3.335   0.080   1.839
 1191WAT     H2 3976   3.309  -0.004   1.716
 1192WAT      O 3977   0.481   6.197   0.827
 1192WAT     H1 3978   0.414   6.189   0.759
 1192WAT     H2 3979   0.524   6.280   0.810
 1193WAT      O 3980   5.178   6.124   5.291
 1193WAT     H1 3981   5.271   6.114   5.314
 1193WAT     H2 3982   5.168   6.077   5.209
 1194WAT      O 3983   2.535   0.662  -0.002
 1194WAT     H1 3984   2.601   0.731   0.004
 1194WAT     H2 3985   2.560   0.601   0.068
 1195WAT      O 3986   6.643   3.460   1.195
 1195WAT     H1 3987   6.680   3.383   1.152
 1195WAT     H2 3988   6.548   3.450   1.186
 1196WAT      O 3989   1.594   3.770   6.011
 1196WAT     H1 3990   1.569   3.704   6.077
 1196WAT     H2 3991   1.635   3.719   5.941
 1197WAT      O 3992   6.768   1.538   2.717
 1197WAT     H1 3993   6.793   1.519   2.627
 1197WAT     H2 3994   6.677   1.568   2.711
 1198WAT      O 3995   4.595   4.183   0.684
 1198WAT     H1 3996   4.678   4.211   0.722
 1198WAT     H2 3997   4.544   4.264   0.677
 1199WAT      O 3998   3.107   6.203   5.800
 1199WAT     H1 3999   3.183   6.217   5.743
 1199WAT     H2 4000   3.093   6.288   5.842
 1200WAT      O 4001   2.422   5.480   5.972
 1200WAT     H1 4002   2.331   5.482   6.000
 1200WAT     H2 4003   2.441   5.570   5.946
 1201WAT      O 4004   6.030   6.782   1.583
 1201WAT     H1 4005   6.095   6.728   1.537
 1201WAT     H2 4006   5.958   6.789   1.521
 1202WAT      O 4007   4.900   3.475   4.116
 1202WAT     H1 4008   4.807   3.482   4.138
 1202WAT     H2 4009   4.939   3.433   4.192
 1203WAT      O 4010   0.485   6.887   4.574
 1203WAT     H1 4011   0.498   6.977   4.544
 1203WAT     H2 4012   0.490   6.834   4.495
 1204WAT      O 4013   1.799   2.445   3.822
 1204WAT     H1 4014   1.722   2.500   3.836
 1204WAT     H2 4015   1.860   2.471   3.892
 1205WAT      O 4016   7.261   6.368   3.756
 1205WAT     H1 4017   7.187   6.334   3.705
 1205WAT     H2 4018   7.224   6.385   3.842
 1206WAT      O 4019   4.643   2.839   1.091
 1206WAT     H1 4020   4.650   2.921   1.041
 1206WAT     H2 4021   4.714   2.785   1.057
 1207WAT      O 4022   2.183   4.914   1.602
 1207WAT     H1 4023   2.106   4.961   1.636
 1207WAT     H2 4024   2.166   4.823   1.624
 1208WAT      O 4025   0.632   0.755   1.499
 1208WAT     H1 4026   0.626   0.785   1.408
 1208WAT     H2 4027   0.576   0.677   1.502
 1209WAT      O 4028   6.104   3.178   1.656
 1209WAT     H1 4029   6.047   3.101   1.658
 1209WAT     H2 4030   6.072   3.230   1.582
 1210WAT      O 4031   5.827   2.528   1.181
 1210WAT     H1 4032   5.746   2.544   1.132
 1210WAT     H2 4033   5.893   2.510   1.114
 1211WAT      O 4034   5.258   3.353   5.679
 1211WAT     H1 4035   5.215   3.274   5.646
 1211WAT     H2 4036   5.227   3.423   5.621
 1212WAT      O 4037   3.404   0.710   2.932
 1212WAT     H1 4038   3.426   0.800   2.957
 1212WAT     H2 4039   3.404   0.711   2.836
 1213WAT      O 4040   4.143   2.160   4.392
 1213WAT     H1 4041   4.049   2.148   4.405
 1213WAT     H2 4042   4.150   2.202   4.306
 1214WAT      O 4043   3.445   1.156   2.747
 1214WAT     H1 4044   3.498   1.078   2.764
 1214WAT     H2 4045   3.459   1.212   2.823
 1215WAT      O 4046   5.598   2.874   2.145
 1215WAT     H1 4047   5.534   2.885   2.074
 1215WAT     H2 4048   5.632   2.785   2.133
 1216WAT      O 4049   6.925   5.566   2.932
 1216WAT     H1 4050   6.963   5.478   2.928
 1216WAT     H2 4051   6.996   5.621   2.967
 1217WAT      O 4052   0.210   4.771   1.433
 1217WAT     H1 4053   0.304   4.756   1.423
 1217WAT     H2 4054   0.190   4.841   1.371
 1218WAT      O 4055   0.761   7.067   1.098
 1218WAT     H1 4056   0.705   7.112   1.034
 1218WAT     H2 4057   0.798   6.993   1.049
 1219WAT      O 4058   2.511   5.040   5.306
 1219WAT     H1 4059   2.477   5.129   5.297
 1219WAT     H2 4060   2.492   4.999   5.221
 1220WAT      O 4061   5.371   1.302   5.401
 1220WAT     H1 4062   5.283   1.339   5.396
 1220WAT     H2 4063   5.359   1.209   5.386
 1221WAT      O 4064   4.019   2.836   2.175
 1221WAT     H1 4065   4.077   2.912   2.167
 1221WAT     H2 4066   3.940   2.862   2.127
 1222WAT      O 4067   3.624   5.056   5.711
 1222WAT     H1 4068   3.588   4.979   5.668
 1222WAT     H2 4069   3.706   5.025   5.749
 1223WAT      O 4070   3.918   2.935   5.557
 1223WAT     H1 4071   3.831   2.947   5.521
 1223WAT     H2 4072   3.977   2.965   5.487
 1224WAT      O 4073   5.527   2.963   1.224
 1224WAT     H1 4074   5.499   3.054   1.219
 1224WAT     H2 4075   5.454   2.914   1.185
 1225WAT      O 4076   4.557   6.437   1.508
 1225WAT     H1 4077   4.514   6.367   1.458
 1225WAT     H2 4078   4.486   6.495   1.534
 1226WAT      O 4079   4.447   4.130   2.105
 1226WAT     H1 4080   4.477   4.039   2.110
 1226WAT     H2 4081   4.404   4.136   2.020
 1227WAT      O 4082   6.808   4.768   1.546
 1227WAT     H1 4083   6.778   4.677   1.551
 1227WAT     H2 4084   6.732   4.820   1.576
 1228WAT      O 4085   6.995   2.381   1.311
 1228WAT     H1 4086   6.929   2.391   1.242
 1228WAT     H2 4087   6.993   2.464   1.358
 1229WAT      O 4088   1.941   4.652   4.485
 1229WAT     H1 4089   1.936   4.557   4.492
 1229WAT     H2 4090   1.850   4.681   4.484
 1230WAT      O 4091   5.402   3.826   4.650
 1230WAT     H1 4092   5.493   3.856   4.645
 1230WAT     H2 4093   5.406   3.748   4.705
 1231WAT      O 4094   4.672   2.427   0.921
 1231WAT     H1 4095   4.697   2.388   0.837
 1231WAT     H2 4096   4.675   2.354   0.983
 1232WAT      O 4097   1.670   5.146   3.827
 1232WAT     H1 4098   1.655   5.066   3.877
 1232WAT     H2 4099   1.765   5.155   3.822
 1233WAT      O 4100   6.959   4.352   0.792
 1233WAT     H1 4101   6.895   4.284   0.814
 1233WAT     H2 4102   7.034   4.335   0.848
 1234WAT      O 4103   5.870   3.131   3.107
 1234WAT     H1 4104   5.808   3.203   3.112
 1234WAT     H2 4105   5.853   3.091   3.021
 1235WAT      O 4106   4.454   2.566   3.752
 1235WAT     H1 4107   4.377   2.620   3.735
 1235WAT     H2 4108   4.469   2.575   3.846
 1236WAT      O 4109   2.506   3.728   5.372
 1236WAT     H1 4110   2.453   3.699   5.298
 1236WAT     H2 4111   2.489   3.822   5.378
 1237WAT      O 4112   4.831   1.900   0.539
 1237WAT     H1 4113   4.820   1.805   0.546
 1237WAT     H2 4114   4.745   1.932   0.515
 1238WAT      O 4115   6.329   1.485   6.188
 1238WAT     H1 4116   6.334   1.542   6.264
 1238WAT     H2 4117   6.398   1.420   6.202
 1239WAT      O 4118   0.896   3.688   2.898
 1239WAT     H1 4119   0.979   3.706   2.853
 1239WAT     H2 4120   0.905   3.598   2.930
 1240WAT      O 4121   0.840   6.188   2.918
 1240WAT     H1 4122   0.844   6.220   3.008
 1240WAT     H2 4123   0.863   6.263   2.864
 1241WAT      O 4124   7.585   0.250   3.445
 1241WAT     H1 4125   7.560   0.191   3.374
 1241WAT     H2 4126   7.632   0.194   3.507
 1242WAT      O 4127   6.710   1.410   2.189
 1242WAT     H1 4128   6.619   1.389   2.167
 1242WAT     H2 4129   6.760   1.334   2.158
 1243WAT      O 4130   3.984   2.042   2.027
 1243WAT     H1 4131   4.001   2.062   2.119
 1243WAT     H2 4132   3.909   2.097   2.004
 1244WAT      O 4133   5.673   5.069   4.697
 1244WAT     H1 4134   5.655   4.980   4.667
 1244WAT     H2 4135   5.743   5.058   4.762
 1245WAT      O 4136   5.967   1.252   2.645
 1245WAT     H1 4137   5.992   1.299   2.566
 1245WAT     H2 4138   5.918   1.315   2.697
 1246WAT      O 4139   7.094   2.447   0.294
 1246WAT     H1 4140   7.094   2.529   0.343
 1246WAT     H2 4141   7.001   2.423   0.287
 1247WAT      O 4142   0.080   4.007   2.656
 1247WAT     H1 4143   0.166   3.964   2.653
 1247WAT     H2 4144   0.061   4.026   2.564
 1248WAT      O 4145   6.994   3.508   4.023
 1248WAT     H1 4146   6.948   3.456   3.958
 1248WAT     H2 4147   7.043   3.572   3.972
 1249WAT      O 4148   3.040   2.294   5.593
 1249WAT     H1 4149   2.960   2.286   5.645
 1249WAT     H2 4150   3.010   2.301   5.503
 1250WAT      O 4151   4.336   3.616   5.519
 1250WAT     H1 4152   4.416   3.647   5.477
 1250WAT     H2 4153   4.267   3.638   5.456
 1251WAT      O 4154   3.632   4.352   4.020
 1251WAT     H1 4155   3.646   4.286   3.952
 1251WAT     H2 4156   3.656   4.434   3.979
 1252WAT      O 4157   2.828   4.687   1.237
 1252WAT     H1 4158   2.895   4.742   1.196
 1252WAT     H2 4159   2.773   4.659   1.164
 1253WAT      O 4160   4.580   1.632   4.375
 1253WAT     H1 4161   4.614   1.560   4.321
 1253WAT     H2 4162   4.652   1.696   4.377
 1254WAT      O 4163   5.259   0.941   1.040
 1254WAT     H1 4164   5.266   1.000   0.966
 1254WAT     H2 4165   5.185   0.884   1.020
 1255WAT      O 4166   1.044   0.422   0.621
 1255WAT     H1 4167   0.997   0.489   0.571
 1255WAT     H2 4168   1.025   0.341   0.574
 1256WAT      O 4169   1.518   3.486   2.405
 1256WAT     H1 4170   1.484   3.574   2.390
 1256WAT     H2 4171   1.445   3.428   2.382
 1257WAT      O 4172   7.447   2.017   4.942
 1257WAT     H1 4173   7.498   2.078   4.890
 1257WAT     H2 4174   7.367   2.003   4.891
 1258WAT      O 4175   6.351   5.846   5.657
 1258WAT     H1 4176   6.322   5.934   5.634
 1258WAT     H2 4177   6.391   5.812   5.577
 1259WAT      O 4178   2.796   6.544   3.801
 1259WAT     H1 4179   2.726   6.602   3.769
 1259WAT     H2 4180   2.866   6.554   3.737
 1260WAT      O 4181   2.939   0.631   4.406
 1260WAT     H1 4182   2.849   0.655   4.427
 1260WAT     H2 4183   2.931   0.559   4.343
 1261WAT      O 4184   4.105   5.902   4.744
 1261WAT     H1 4185   4.199   5.915   4.730
 1261WAT     H2 4186   4.096   5.808   4.757
 1262WAT      O 4187   4.722   5.025   1.323
 1262WAT     H1 4188   4.697   5.086   1.254
 1262WAT     H2 4189   4.717   4.939   1.281
 1263WAT      O 4190   7.608   1.470   2.670
 1263WAT     H1 4191   7.693   1.514   2.671
 1263WAT     H2 4192   7.625   1.388   2.625
 1264WAT      O 4193   5.717   3.965   4.693
 1264WAT     H1 4194   5.712   4.022   4.616
 1264WAT     H2 4195   5.732   3.877   4.657
 1265WAT      O 4196   6.475   2.902   4.475
 1265WAT     H1 4197   6.472   2.868   4.385
 1265WAT     H2 4198   6.535   2.844   4.521
 1266WAT      O 4199   1.812   2.548   5.397
 1266WAT     H1 4200   1.753   2.474   5.389
 1266WAT     H2 4201   1.802   2.577   5.488
 1267WAT      O 4202   1.102   1.087   4.164
 1267WAT     H1 4203   1.094   1.133   4.247
 1267WAT     H2 4204   1.012   1.081   4.131
 1268WAT      O 4205   2.434   6.708   5.431
 1268WAT     H1 4206   2.361   6.705   5.369
 1268WAT     H2 4207   2.504   6.754   5.384
 1269WAT      O 4208   7.358   4.642   3.251
 1269WAT     H1 4209   7.348   4.673   3.161
 1269WAT     H2 4210   7.386   4.720   3.300
 1270WAT      O 4211   2.717   0.959   1.351
 1270WAT     H1 4212   2.750   1.048   1.348
 1270WAT     H2 4213   2.633   0.963   1.305
 1271WAT      O 4214   3.979   2.888   3.176
 1271WAT     H1 4215   3.921   2.929   3.112
 1271WAT     H2 4216   4.064   2.882   3.132
 1272WAT      O 4217   3.858   1.305   0.113
 1272WAT     H1 4218   3.773   1.305   0.158
 1272WAT     H2 4219   3.872   1.397   0.090
 1273WAT      O 4220   3.851   6.704   4.191
 1273WAT     H1 4221   3.805   6.784   4.217
 1273WAT     H2 4222   3.888   6.670   4.272
 1274WAT      O 4223   1.269   5.570   4.833
 1274WAT     H1 4224   1.307   5.581   4.920
 1274WAT     H2 4225   1.212   5.647   4.822
 1275WAT      O 4226   2.821   5.103   5.702
 1275WAT     H1 4227   2.751   5.146   5.750
 1275WAT     H2 4228   2.889   5.086   5.768
 1276WAT      O 4229   2.449   3.916   4.653
 1276WAT     H1 4230   2.461   3.859   4.730
 1276WAT     H2 4231   2.535   3.953   4.637
 1277WAT      O 4232   3.158   3.551   5.923
 1277WAT     H1 4233   3.080   3.594   5.887
 1277WAT     H2 4234   3.229   3.613   5.908
 1278WAT      O 4235   3.249   2.403   3.085
 1278WAT     H1 4236   3.255   2.308   3.082
 1278WAT     H2 4237   3.161   2.421   3.118
 1279WAT      O 4238   2.145   2.318   1.252
 1279WAT     H1 4239   2.138   2.278   1.165
 1279WAT     H2 4240   2.056   2.313   1.288
 1280WAT      O 4241   0.599   6.068   4.449
 1280WAT     H1 4242   0.641   6.040   4.367
 1280WAT     H2 4243   0.642   6.016   4.517
 1281WAT      O 4244   5.885   5.370   3.416
 1281WAT     H1 4245   5.891   5.336   3.327
 1281WAT     H2 4246   5.971   5.353   3.454
 1282WAT      O 4247   4.826   3.811   5.158
 1282WAT     H1 4248   4.801   3.893   5.116
 1282WAT     H2 4249   4.920   3.804   5.144
 1283WAT      O 4250   7.193   1.295   4.509
 1283WAT     H1 4251   7.273   1.252   4.481
 1283WAT     H2 4252   7.124   1.251   4.460
 1284WAT      O 4253   5.608   4.125   3.502
 1284WAT     H1 4254   5.613   4.134   3.407
 1284WAT     H2 4255   5.688   4.167   3.534
 1285WAT      O 4256   3.501   3.880   0.443
 1285WAT     H1 4257   3.442   3.878   0.367
 1285WAT     H2 4258   3.523   3.788   0.459
 1286WAT      O 4259   4.656   1.532   4.962
 1286WAT     H1 4260   4.571   1.535   4.918
 1286WAT     H2 4261   4.680   1.623   4.975
 1287WAT      O 4262   6.480   0.272   3.968
 1287WAT     H1 4263   6.567   0.293   4.001
 1287WAT     H2 4264   6.487   0.281   3.873
 1288WAT      O 4265   2.437   7.115   5.481
 1288WAT     H1 4266   2.461   7.032   5.521
 1288WAT     H2 4267   2.361   7.146   5.531
 1289WAT      O 4268   0.266   4.835   2.762
 1289WAT     H1 4269   0.360   4.830   2.745
 1289WAT     H2 4270   0.253   4.785   2.842
 1290WAT      O 4271   3.574   6.836   2.976
 1290WAT     H1 4272   3.632   6.818   3.050
 1290WAT     H2 4273   3.527   6.753   2.962
 1291WAT      O 4274   5.031   0.833   5.057
 1291WAT     H1 4275   5.048   0.739   5.050
 1291WAT     H2 4276   5.032   0.864   4.966
 1292WAT      O 4277   2.162   1.050   4.214
 1292WAT     H1 4278   2.148   1.046   4.309
 1292WAT     H2 4279   2.186   1.142   4.198
 1293WAT      O 4280   3.923   0.828   5.638
 1293WAT     H1 4281   3.999   0.837   5.696
 1293WAT     H2 4282   3.932   0.899   5.575
 1294WAT      O 4283   4.607   4.629   4.840
 1294WAT     H1 4284   4.535   4.637   4.777
 1294WAT     H2 4285   4.669   4.697   4.814
 1295WAT      O 4286   0.635   3.488   3.038
 1295WAT     H1 4287   0.564   3.424   3.039
 1295WAT     H2 4288   0.626   3.532   2.953
 1296WAT      O 4289   7.602   6.767   5.184
 1296WAT     H1 4290   7.630   6.800   5.270
 1296WAT     H2 4291   7.508   6.787   5.180
 1297WAT      O 4292   1.163   4.128   1.948
 1297WAT     H1 4293   1.131   4.055   1.895
 1297WAT     H2 4294   1.257   4.129   1.934
 1298WAT      O 4295   1.515   1.455   3.397
 1298WAT     H1 4296   1.535   1.481   3.307
 1298WAT     H2 4297   1.424   1.481   3.410
 1299WAT      O 4298   7.064   4.810   1.638
 1299WAT     H1 4299   7.118   4.867   1.583
 1299WAT     H2 4300   6.988   4.789   1.584
 1300WAT      O 4301   5.892   6.102   5.537
 1300WAT     H1 4302   5.955   6.087   5.608
 1300WAT     H2 4303   5.839   6.022   5.536
 1301WAT      O 4304   5.746   1.260   5.379
 1301WAT     H1 4305   5.705   1.178   5.404
 1301WAT     H2 4306   5.689   1.295   5.310
 1302WAT      O 4307   3.971   0.617   4.566
 1302WAT     H1 4308   3.882   0.607   4.531
 1302WAT     H2 4309   4.027   0.619   4.489
 1303WAT      O 4310   4.073   3.671   5.915
 1303WAT     H1 4311   3.999   3.701   5.862
 1303WAT     H2 4312   4.112   3.600   5.865
 1304WAT      O 4313   6.052   7.036   3.652
 1304WAT     H1 4314   6.144   7.059   3.634
 1304WAT     H2 4315   6.006   7.056   3.571
 1305WAT      O 4316   5.595   5.482   4.940
 1305WAT     H1 4317   5.592   5.520   4.852
 1305WAT     H2 4318   5.558   5.394   4.930
 1306WAT      O 4319   5.738   6.915   0.897
 1306WAT     H1 4320   5.692   6.834   0.875
 1306WAT     H2 4321   5.686   6.954   0.967
 1307WAT      O 4322   5.155   5.832   0.493
 1307WAT     H1 4323   5.217   5.895   0.456
 1307WAT     H2 4324   5.069   5.868   0.471
 1308WAT      O 4325   2.120   6.287   4.140
 1308WAT     H1 4326   2.137   6.193   4.129
 1308WAT     H2 4327   2.194   6.329   4.096
 1309WAT      O 4328   3.639   1.124   3.967
 1309WAT     H1 4329   3.731   1.148   3.954
 1309WAT     H2 4330   3.642   1.041   4.015
 1310WAT      O 4331   3.372   0.366   5.240
 1310WAT     H1 4332   3.323   0.287   5.263
 1310WAT     H2 4333   3.347   0.430   5.307
 1311WAT      O 4334   3.923   1.844   3.236
 1311WAT     H1 4335   3.993   1.790   3.200
 1311WAT     H2 4336   3.875   1.876   3.160
 1312WAT      O 4337   2.131   1.728   4.545
 1312WAT     H1 4338   2.120   1.634   4.532
 1312WAT     H2 4339   2.168   1.760   4.462
 1313WAT      O 4340   3.094   1.821   0.050
 1313WAT     H1 4341   3.113   1.865   0.133
 1313WAT     H2 4342   3.113   1.887  -0.017
 1314WAT      O 4343   4.106   4.656   5.646
 1314WAT     H1 4344   4.100   4.625   5.556
 1314WAT     H2 4345   4.121   4.750   5.638
 1315WAT      O 4346   6.872   0.262   3.335
 1315WAT     H1 4347   6.779   0.237   3.336
 1315WAT     H2 4348   6.919   0.179   3.323
 1316WAT      O 4349   5.456   0.049   2.507
 1316WAT     H1 4350   5.549   0.051   2.483
 1316WAT     H2 4351   5.414   0.108   2.444
 1317WAT      O 4352   1.371   3.210   3.172
 1317WAT     H1 4353   1.448   3.234   3.225
 1317WAT     H2 4354   1.405   3.149   3.107
 1318WAT      O 4355   5.951   5.363   0.812
 1318WAT     H1 4356   5.979   5.424   0.744
 1318WAT     H2 4357   5.994   5.281   0.790
 1319WAT      O 4358   2.354   5.044   1.443
 1319WAT     H1 4359   2.300   4.994   1.505
 1319WAT     H2 4360   2.309   5.128   1.434
 1320WAT      O 4361   2.809   3.142   0.444
 1320WAT     H1 4362   2.784   3.150   0.537
 1320WAT     H2 4363   2.897   3.179   0.440
 1321WAT      O 4364   4.274   4.217   1.869
 1321WAT     H1 4365   4.356   4.223   1.821
 1321WAT     H2 4366   4.248   4.308   1.884
 1322WAT      O 4367   6.956   5.473   4.766
 1322WAT     H1 4368   6.999   5.550   4.802
 1322WAT     H2 4369   6.994   5.463   4.679
 1323WAT      O 4370   7.613   3.824   5.368
 1323WAT     H1 4371   7.555   3.818   5.443
 1323WAT     H2 4372   7.603   3.740   5.323
 1324WAT      O 4373   0.917   3.221   4.595
 1324WAT     H1 4374   0.821   3.212   4.595
 1324WAT     H2 4375   0.949   3.132   4.611
 1325WAT      O 4376   3.359   0.446   3.908
 1325WAT     H1 4377   3.409   0.375   3.869
 1325WAT     H2 4378   3.381   0.523   3.855
 1326WAT      O 4379   5.302   4.604   3.977
 1326WAT     H1 4380   5.364   4.531   3.978
 1326WAT     H2 4381   5.296   4.629   3.885
 1327WAT      O 4382   1.473   2.051   4.767
 1327WAT     H1 4383   1.411   2.076   4.699
 1327WAT     H2 4384   1.419   2.013   4.836
 1328WAT      O 4385   0.083   6.841   5.417
 1328WAT     H1 4386   0.069   6.756   5.458
 1328WAT     H2 4387   0.095   6.902   5.490
 1329WAT      O 4388   1.975   6.165   2.756
 1329WAT     H1 4389   1.916   6.164   2.680
 1329WAT     H2 4390   2.051   6.216   2.726
 1330WAT      O 4391   6.798   6.436   2.710
 1330WAT     H1 4392   6.810   6.341   2.704
 1330WAT     H2 4393   6.739   6.457   2.637
 1331WAT      O 4394   6.786   2.953   5.179
 1331WAT     H1 4395   6.825   3.038   5.199
 1331WAT     H2 4396   6.694   2.972   5.160
 1332WAT      O 4397   5.841   1.516   1.102
 1332WAT     H1 4398   5.861   1.601   1.064
 1332WAT     H2 4399   5.825   1.459   1.027
 1333WAT      O 4400   1.012   0.559   3.420
 1333WAT     H1 4401   1.104   0.558   3.394
 1333WAT     H2 4402   0.995   0.649   3.448
 1334WAT      O 4403   2.899   6.998   3.735
 1334WAT     H1 4404   2.931   7.035   3.653
 1334WAT     H2 4405   2.863   7.073   3.783
 1335WAT      O 4406   0.609   0.108   0.615
 1335WAT     H1 4407   0.637   0.140   0.529
 1335WAT     H2 4408   0.558   0.030   0.597
 1336WAT      O 4409   7.509   6.435   0.021
 1336WAT     H1 4410   7.565   6.358   0.017
 1336WAT     H2 4411   7.507   6.468  -0.069
 1337WAT      O 4412   0.580   1.503   6.170
 1337WAT     H1 4413   0.488   1.519   6.149
 1337WAT     H2 4414   0.614   1.457   6.093
 1338WAT      O 4415   0.062   1.092   3.121
 1338WAT     H1 4416   0.035   1.140   3.199
 1338WAT     H2 4417  -0.004   1.113   3.055
 1339WAT      O 4418   7.331   2.860   0.598
 1339WAT     H1 4419   7.370   2.897   0.519
 1339WAT     H2 4420   7.287   2.781   0.567
 1340WAT      O 4421   0.447   2.229   5.916
 1340WAT     H1 4422   0.393   2.150   5.914
 1340WAT     H2 4423   0.405   2.289   5.853
 1341WAT      O 4424   2.243   6.303   2.430
 1341WAT     H1 4425   2.260   6.324   2.339
 1341WAT     H2 4426   2.278   6.214   2.442
 1342WAT      O 4427   5.403   6.254   3.890
 1342WAT     H1 4428   5.424   6.261   3.983
 1342WAT     H2 4429   5.337   6.184   3.885
 1343WAT      O 4430   1.972   4.036   4.911
 1343WAT     H1 4431   1.999   4.109   4.856
 1343WAT     H2 4432   1.887   4.010   4.876
 1344WAT      O 4433   6.940   1.179   5.541
 1344WAT     H1 4434   6.955   1.148   5.631
 1344WAT     H2 4435   6.900   1.265   5.552
 1345WAT      O 4436   0.298   5.758   1.050
 1345WAT     H1 4437   0.223   5.710   1.013
 1345WAT     H2 4438   0.348   5.786   0.973
 1346WAT      O 4439   3.428   1.976   2.768
 1346WAT     H1 4440   3.523   1.991   2.761
 1346WAT     H2 4441   3.389   2.054   2.729
 1347WAT      O 4442   0.517   3.777   5.625
 1347WAT     H1 4443   0.499   3.684   5.610
 1347WAT     H2 4444   0.553   3.808   5.542
 1348WAT      O 4445   2.418   0.111   1.603
 1348WAT     H1 4446   2.339   0.157   1.633
 1348WAT     H2 4447   2.386   0.028   1.569
 1349WAT      O 4448   1.194   4.599   5.228
 1349WAT     H1 4449   1.124   4.583   5.165
 1349WAT     H2 4450   1.274   4.603   5.176
 1350WAT      O 4451   4.343   0.259   3.746
 1350WAT     H1 4452   4.268   0.225   3.697
 1350WAT     H2 4453   4.412   0.267   3.680
 1351WAT      O 4454   5.207   4.707   5.295
 1351WAT     H1 4455   5.221   4.614   5.279
 1351WAT     H2 4456   5.284   4.749   5.257
 1352WAT      O 4457   4.897   4.828   5.077
 1352WAT     H1 4458   4.956   4.830   5.003
 1352WAT     H2 4459   4.927   4.754   5.130
 1353WAT      O 4460   1.477   0.412   5.229
 1353WAT     H1 4461   1.491   0.318   5.242
 1353WAT     H2 4462   1.393   0.419   5.185
 1354WAT      O 4463   1.845   3.570   5.301
 1354WAT     H1 4464   1.796   3.540   5.224
 1354WAT     H2 4465   1.816   3.512   5.372
 1355WAT      O 4466   0.484   5.499   4.200
 1355WAT     H1 4467   0.572   5.534   4.200
 1355WAT     H2 4468   0.427   5.575   4.185
 1356WAT      O 4469   3.066   1.858   1.499
 1356WAT     H1 4470   3.111   1.820   1.574
 1356WAT     H2 4471   3.136   1.890   1.442
 1357WAT      O 4472   3.334   5.209   5.491
 1357WAT     H1 4473   3.319   5.115   5.495
 1357WAT     H2 4474   3.255   5.248   5.528
 1358WAT      O 4475   7.038   0.628   0.603
 1358WAT     H1 4476   7.107   0.612   0.539
 1358WAT     H2 4477   6.963   0.656   0.550
 1359WAT      O 4478   3.690   5.361   6.203
 1359WAT     H1 4479   3.728   5.328   6.121
 1359WAT     H2 4480   3.599   5.381   6.181
 1360WAT      O 4481   2.721   5.430   1.184
 1360WAT     H1 4482   2.715   5.340   1.152
 1360WAT     H2 4483   2.642   5.473   1.152
 1361WAT      O 4484   6.672   6.031   3.419
 1361WAT     H1 4485   6.626   6.072   3.493
 1361WAT     H2 4486   6.603   5.984   3.371
 1362WAT      O 4487   1.878   0.520   3.293
 1362WAT     H1 4488   1.963   0.565   3.291
 1362WAT     H2 4489   1.889   0.447   3.232
 1363WAT      O 4490   0.779   5.560   2.071
 1363WAT     H1 4491   0.873   5.564   2.055
 1363WAT     H2 4492   0.762   5.468   2.092
 1364WAT      O 4493   6.120   4.885   3.780
 1364WAT     H1 4494   6.162   4.891   3.694
 1364WAT     H2 4495   6.066   4.964   3.786
 1365WAT      O 4496   4.227   2.547   4.153
 1365WAT     H1 4497   4.137   2.531   4.123
 1365WAT     H2 4498   4.228   2.640   4.176
 1366WAT      O 4499   4.852   3.208   1.531
 1366WAT     H1 4500   4.899   3.201   1.613
 1366WAT     H2 4501   4.919   3.231   1.466
 1367WAT      O 4502   1.451   4.214   3.202
 1367WAT     H1 4503   1.496   4.136   3.168
 1367WAT     H2 4504   1.518   4.282   3.202
 1368WAT      O 4505   3.638   3.034   5.872
 1368WAT     H1 4506   3.722   2.988   5.863
 1368WAT     H2 4507   3.580   2.971   5.914
 1369WAT      O 4508   4.492   5.046   2.019
 1369WAT     H1 4509   4.507   5.137   1.995
 1369WAT     H2 4510   4.398   5.040   2.033
 1370WAT      O 4511   1.412   5.916   4.746
 1370WAT     H1 4512   1.463   5.992   4.719
 1370WAT     H2 4513   1.330   5.924   4.697
 1371WAT      O 4514   3.159   6.615   0.074
 1371WAT     H1 4515   3.221   6.606   0.146
 1371WAT     H2 4516   3.213   6.618  -0.004
 1372WAT      O 4517   1.532   2.053   0.410
 1372WAT     H1 4518   1.587   2.063   0.332
 1372WAT     H2 4519   1.542   2.136   0.456
 1373WAT      O 4520   0.564   6.775   2.465
 1373WAT     H1 4521   0.578   6.731   2.381
 1373WAT     H2 4522   0.501   6.844   2.445
 1374WAT      O 4523   7.398   3.934   4.541
 1374WAT     H1 4524   7.423   3.926   4.633
 1374WAT     H2 4525   7.313   3.977   4.543
 1375WAT      O 4526   5.261   3.573   5.949
 1375WAT     H1 4527   5.239   3.596   6.039
 1375WAT     H2 4528   5.314   3.494   5.957
 1376WAT      O 4529   1.967   3.640   5.666
 1376WAT     H1 4530   1.933   3.691   5.740
 1376WAT     H2 4531   1.955   3.698   5.591
 1377WAT      O 4532   2.719   4.811   5.148
 1377WAT     H1 4533   2.682   4.727   5.122
 1377WAT     H2 4534   2.674   4.875   5.093
 1378WAT      O 4535   2.843   2.885   0.661
 1378WAT     H1 4536   2.769   2.835   0.627
 1378WAT     H2 4537   2.803   2.960   0.705
 1379WAT      O 4538   5.410   2.797   4.641
 1379WAT     H1 4539   5.482   2.808   4.579
 1379WAT     H2 4540   5.406   2.703   4.656
 1380WAT      O 4541   5.662   4.196   4.560
 1380WAT     H1 4542   5.684   4.280   4.519
 1380WAT     H2 4543   5.594   4.158   4.503
 1381WAT      O 4544   4.198   2.078   5.294
 1381WAT     H1 4545   4.123   2.138   5.296
 1381WAT     H2 4546   4.239   2.093   5.209
 1382WAT      O 4547   7.343   1.132   4.808
 1382WAT     H1 4548   7.279   1.129   4.879
 1382WAT     H2 4549   7.348   1.224   4.784
 1383WAT      O 4550   6.607   1.219   0.401
 1383WAT     H1 4551   6.638   1.288   0.459
 1383WAT     H2 4552   6.683   1.197   0.347
 1384WAT      O 4553   6.054   3.964   6.041
 1384WAT     H1 4554   6.084   4.051   6.066
 1384WAT     H2 4555   5.978   3.979   5.986
 1385WAT      O 4556   2.811   3.313   2.037
 1385WAT     H1 4557   2.900   3.349   2.042
 1385WAT     H2 4558   2.767   3.368   1.973
 1386WAT      O 4559   0.293   6.928   5.837
 1386WAT     H1 4560   0.241   6.849   5.821
 1386WAT     H2 4561   0.264   6.990   5.770
 1387WAT      O 4562   5.652   1.525   4.887
 1387WAT     H1 4563   5.595   1.587   4.840
 1387WAT     H2 4564   5.711   1.491   4.820
 1388WAT      O 4565   5.650   0.937   1.295
 1388WAT     H1 4566   5.599   0.978   1.226
 1388WAT     H2 4567   5.664   1.007   1.359
 1389WAT      O 4568   6.201   4.476   3.573
 1389WAT     H1 4569   6.175   4.561   3.540
 1389WAT     H2 4570   6.201   4.419   3.497
 1390WAT      O 4571   5.057   3.198   5.061
 1390WAT     H1 4572   5.024   3.281   5.027
 1390WAT     H2 4573   5.005   3.132   5.015
 1391WAT      O 4574   5.485   3.419   0.076
 1391WAT     H1 4575   5.453   3.435  -0.013
 1391WAT     H2 4576   5.547   3.348   0.067
 1392WAT      O 4577   5.710   2.377   4.844
 1392WAT     H1 4578   5.755   2.440   4.788
 1392WAT     H2 4579   5.642   2.339   4.788
 1393WAT      O 4580   3.403   6.265   4.625
 1393WAT     H1 4581   3.454   6.334   4.667
 1393WAT     H2 4582   3.417   6.279   4.531
 1394WAT      O 4583   3.682   1.362   4.451
 1394WAT     H1 4584   3.625   1.390   4.379
 1394WAT     H2 4585   3.705   1.271   4.430
 1395WAT      O 4586   2.753   4.154   2.292
 1395WAT     H1 4587   2.670   4.167   2.247
 1395WAT     H2 4588   2.813   4.215   2.249
 1396WAT      O 4589   0.160   1.209   0.639
 1396WAT     H1 4590   0.176   1.210   0.544
 1396WAT     H2 4591   0.173   1.118   0.665
 1397WAT      O 4592   0.093   2.910   4.308
 1397WAT     H1 4593   0.052   2.996   4.305
 1397WAT     H2 4594   0.096   2.882   4.216
 1398WAT      O 4595   2.947   3.590   5.022
 1398WAT     H1 4596   2.924   3.573   4.931
 1398WAT     H2 4597   2.977   3.680   5.023
 1399WAT      O 4598   0.289   1.247   4.021
 1399WAT     H1 4599   0.298   1.161   4.064
 1399WAT     H2 4600   0.295   1.227   3.928
 1400WAT      O 4601   3.532   3.208   5.180
 1400WAT     H1 4602   3.531   3.283   5.120
 1400WAT     H2 4603   3.573   3.242   5.260
 1401WAT      O 4604   7.284   7.071   4.629
 1401WAT     H1 4605   7.338   7.005   4.587
 1401WAT     H2 4606   7.197   7.060   4.591
 1402WAT      O 4607   6.743   3.708   4.362
 1402WAT     H1 4608   6.725   3.705   4.268
 1402WAT     H2 4609   6.667   3.665   4.402
 1403WAT      O 4610   1.414   1.697   5.362
 1403WAT     H1 4611   1.496   1.651   5.376
 1403WAT     H2 4612   1.439   1.781   5.323
 1404WAT      O 4613   2.976   6.948   5.623
 1404WAT     H1 4614   2.963   6.893   5.700
 1404WAT     H2 4615   2.921   6.908   5.556
 1405WAT      O 4616   3.598   6.991   3.785
 1405WAT     H1 4617   3.627   6.900   3.788
 1405WAT     H2 4618   3.553   6.999   3.701
 1406WAT      O 4619   0.301   2.439   4.731
 1406WAT     H1 4620   0.304   2.352   4.690
 1406WAT     H2 4621   0.332   2.499   4.664
 1407WAT      O 4622   5.759   6.994   1.668
 1407WAT     H1 4623   5.666   6.972   1.668
 1407WAT     H2 4624   5.797   6.936   1.601
 1408WAT      O 4625   7.218   1.176   3.900
 1408WAT     H1 4626   7.263   1.181   3.816
 1408WAT     H2 4627   7.136   1.223   3.887
 1409WAT      O 4628   6.821   2.894   2.681
 1409WAT     H1 4629   6.736   2.922   2.646
 1409WAT     H2 4630   6.875   2.973   2.676
 1410WAT      O 4631   3.090   2.030   6.001
 1410WAT     H1 4632   3.055   1.973   6.070
 1410WAT     H2 4633   3.164   1.981   5.965
 1411WAT      O 4634   1.205   1.659   0.302
 1411WAT     H1 4635   1.128   1.608   0.329
 1411WAT     H2 4636   1.168   1.732   0.251
 1412WAT      O 4637   6.503   4.174   5.126
 1412WAT     H1 4638   6.461   4.194   5.209
 1412WAT     H2 4639   6.531   4.259   5.092
 1413WAT      O 4640   3.039   5.457   4.284
 1413WAT     H1 4641   3.063   5.542   4.320
 1413WAT     H2 4642   3.105   5.441   4.217
 1414WAT      O 4643   3.311   2.587   5.025
 1414WAT     H1 4644   3.373   2.632   4.967
 1414WAT     H2 4645   3.331   2.494   5.013
 1415WAT      O 4646   0.038   4.751   5.963
 1415WAT     H1 4647  -0.048   4.777   5.929
 1415WAT     H2 4648   0.087   4.723   5.885
 1416WAT      O 4649   3.114   6.745   0.740
 1416WAT     H1 4650   3.083   6.658   0.714
 1416WAT     H2 4651   3.074   6.760   0.826
 1417WAT      O 4652   7.511   1.600   3.993
 1417WAT     H1 4653   7.550   1.663   3.932
 1417WAT     H2 4654   7.583   1.541   4.015
 1418WAT      O 4655   3.508   0.987   3.752
 1418WAT     H1 4656   3.533   0.986   3.845
 1418WAT     H2 4657   3.580   1.034   3.709
 1419WAT      O 4658   1.155   6.181   3.712
 1419WAT     H1 4659   1.096   6.109   3.691
 1419WAT     H2 4660   1.106   6.260   3.690
 1420WAT      O 4661   5.024   5.897   4.821
 1420WAT     H1 4662   5.010   5.983   4.781
 1420WAT     H2 4663   4.968   5.837   4.771
 1421WAT      O 4664   4.473   0.246   3.986
 1421WAT     H1 4665   4.408   0.240   4.056
 1421WAT     H2 4666   4.424   0.224   3.907
 1422WAT      O 4667   5.918   5.350   2.316
 1422WAT     H1 4668   5.991   5.339   2.376
 1422WAT     H2 4669   5.890   5.441   2.327
 1423WAT      O 4670   1.580   0.936   2.468
 1423WAT     H1 4671   1.595   1.016   2.417
 1423WAT     H2 4672   1.512   0.890   2.419
 1424WAT      O 4673   7.112   1.899   4.378
 1424WAT     H1 4674   7.061   1.970   4.338
 1424WAT     H2 4675   7.145   1.849   4.304
 1425WAT      O 4676   4.069   1.596   4.648
 1425WAT     H1 4677   4.098   1.623   4.561
 1425WAT     H2 4678   4.126   1.645   4.708
 1426WAT      O 4679   3.661   1.619   3.858
 1426WAT     H1 4680   3.602   1.544   3.865
 1426WAT     H2 4681   3.698   1.612   3.770
 1427WAT      O 4682   3.396   3.337   2.661
 1427WAT     H1 4683   3.325   3.273   2.651
 1427WAT     H2 4684   3.474   3.290   2.630
 1428WAT      O 4685   4.770   5.653   5.639
 1428WAT     H1 4686   4.688   5.607   5.659
 1428WAT     H2 4687   4.820   5.590   5.588
 1429WAT      O 4688   3.940   5.365   2.329
 1429WAT     H1 4689   3.952   5.456   2.356
 1429WAT     H2 4690   3.909   5.370   2.239
 1430WAT      O 4691   0.614   5.253   4.251
 1430WAT     H1 4692   0.574   5.169   4.231
 1430WAT     H2 4693   0.555   5.318   4.213
 1431WAT      O 4694   2.102   4.621   0.337
 1431WAT     H1 4695   2.008   4.636   0.324
 1431WAT     H2 4696   2.131   4.581   0.255
 1432WAT      O 4697   4.363   7.006   1.516
 1432WAT     H1 4698   4.452   7.004   1.480
 1432WAT     H2 4699   4.306   7.021   1.441
 1433WAT      O 4700   0.461   1.143   0.848
 1433WAT     H1 4701   0.366   1.133   0.859
 1433WAT     H2 4702   0.473   1.141   0.753
 1434WAT      O 4703   0.191   6.468   0.419
 1434WAT     H1 4704   0.176   6.542   0.360
 1434WAT     H2 4705   0.278   6.436   0.397
 1435WAT      O 4706   0.167   2.219   2.009
 1435WAT     H1 4707   0.226   2.270   2.064
 1435WAT     H2 4708   0.159   2.271   1.928
 1436WAT      O 4709   6.391   0.491   5.764
 1436WAT     H1 4710   6.424   0.461   5.680
 1436WAT     H2 4711   6.314   0.544   5.743
 1437WAT      O 4712   3.692   3.530   0.020
 1437WAT     H1 4713   3.759   3.592   0.049
 1437WAT     H2 4714   3.665   3.561  -0.066
 1438WAT      O 4715   5.861   3.964   1.302
 1438WAT     H1 4716   5.909   3.959   1.219
 1438WAT     H2 4717   5.924   3.932   1.367
 1439WAT      O 4718   3.966   6.124   0.814
 1439WAT     H1 4719   3.970   6.115   0.719
 1439WAT     H2 4720   4.031   6.193   0.834
 1440WAT      O 4721   4.392   2.077   3.979
 1440WAT     H1 4722   4.397   2.172   3.980
 1440WAT     H2 4723   4.381   2.054   3.887
 1441WAT      O 4724   3.541   1.549   1.064
 1441WAT     H1 4725   3.489   1.528   0.987
 1441WAT     H2 4726   3.601   1.618   1.035
 1442WAT      O 4727   0.588   7.162   0.921
 1442WAT     H1 4728   0.586   7.258   0.930
 1442WAT     H2 4729   0.563   7.146   0.830
 1443WAT      O 4730   1.937   6.650   5.336
 1443WAT     H1 4731   1.859   6.607   5.368
 1443WAT     H2 4732   1.991   6.579   5.300
 1444WAT      O 4733   7.129   0.439   2.316
 1444WAT     H1 4734   7.184   0.361   2.308
 1444WAT     H2 4735   7.043   0.405   2.340
 1445WAT      O 4736   2.247   1.316   1.024
 1445WAT     H1 4737   2.155   1.320   1.049
 1445WAT     H2 4738   2.294   1.356   1.097
 1446WAT      O 4739   7.569   0.481   5.468
 1446WAT     H1 4740   7.496   0.455   5.412
 1446WAT     H2 4741   7.580   0.409   5.529
 1447WAT      O 4742   0.112   3.980   2.374
 1447WAT     H1 4743   0.131   3.892   2.340
 1447WAT     H2 4744   0.071   4.026   2.300
 1448WAT      O 4745   6.644   1.002   0.975
 1448WAT     H1 4746   6.690   1.084   0.993
 1448WAT     H2 4747   6.610   0.974   1.060
 1449WAT      O 4748   4.890   5.761   1.259
 1449WAT     H1 4749   4.813   5.814   1.237
 1449WAT     H2 4750   4.961   5.802   1.209
 1450WAT      O 4751   4.223   3.414   4.272
 1450WAT     H1 4752   4.315   3.391   4.280
 1450WAT     H2 4753   4.179   3.331   4.254
 1451WAT      O 4754   5.150   6.838   3.397
 1451WAT     H1 4755   5.104   6.754   3.389
 1451WAT     H2 4756   5.172   6.844   3.490
 1452WAT      O 4757   0.783   6.116   5.813
 1452WAT     H1 4758   0.873   6.142   5.834
 1452WAT     H2 4759   0.758   6.173   5.740
 1453WAT      O 4760   6.375   0.496   5.224
 1453WAT     H1 4761   6.346   0.494   5.133
 1453WAT     H2 4762   6.427   0.417   5.234
 1454WAT      O 4763   7.279   6.166   0.223
 1454WAT     H1 4764   7.343   6.116   0.174
 1454WAT     H2 4765   7.195   6.122   0.205
 1455WAT      O 4766   0.803   3.137   2.379
 1455WAT     H1 4767   0.790   3.222   2.422
 1455WAT     H2 4768   0.814   3.159   2.286
 1456WAT      O 4769   5.745   6.027   5.842
 1456WAT     H1 4770   5.702   5.941   5.851
 1456WAT     H2 4771   5.682   6.080   5.794
 1457WAT      O 4772   5.865   3.609   4.961
 1457WAT     H1 4773   5.797   3.600   4.895
 1457WAT     H2 4774   5.932   3.546   4.936
 1458WAT      O 4775   1.552   1.168   5.486
 1458WAT     H1 4776   1.464   1.132   5.477
 1458WAT     H2 4777   1.591   1.119   5.558
 1459WAT      O 4778   0.852   4.662   0.532
 1459WAT     H1 4779   0.822   4.624   0.450
 1459WAT     H2 4780   0.946   4.643   0.534
 1460WAT      O 4781   0.655   3.501   2.093
 1460WAT     H1 4782   0.633   3.576   2.038
 1460WAT     H2 4783   0.684   3.434   2.030
 1461WAT      O 4784   6.582   6.875   1.704
 1461WAT     H1 4785   6.585   6.779   1.708
 1461WAT     H2 4786   6.672   6.902   1.723
 1462WAT      O 4787   0.848   5.789   4.817
 1462WAT     H1 4788   0.775   5.827   4.866
 1462WAT     H2 4789   0.840   5.695   4.832
 1463WAT      O 4790   5.277   0.262   3.974
 1463WAT     H1 4791   5.212   0.312   3.923
 1463WAT     H2 4792   5.355   0.317   3.973
 1464WAT      O 4793   2.836   3.450   5.859
 1464WAT     H1 4794   2.742   3.432   5.864
 1464WAT     H2 4795   2.868   3.393   5.789
 1465WAT      O 4796   4.494   4.634   0.006
 1465WAT     H1 4797   4.415   4.596  -0.033
 1465WAT     H2 4798   4.477   4.636   0.100
 1466WAT      O 4799   6.363   5.603   1.793
 1466WAT     H1 4800   6.445   5.552   1.792
 1466WAT     H2 4801   6.324   5.586   1.708
 1467WAT      O 4802   2.108   4.967   5.736
 1467WAT     H1 4803   2.116   4.938   5.645
 1467WAT     H2 4804   2.061   4.897   5.780
 1468WAT      O 4805   6.374   5.063   2.973
 1468WAT     H1 4806   6.325   5.143   2.955
 1468WAT     H2 4807   6.374   5.016   2.890
 1469WAT      O 4808   1.140   4.691   0.453
 1469WAT     H1 4809   1.159   4.712   0.545
 1469WAT     H2 4810   1.084   4.762   0.424
 1470WAT      O 4811   1.948   5.910   2.913
 1470WAT     H1 4812   1.905   5.916   2.827
 1470WAT     H2 4813   1.920   5.989   2.959
 1471WAT      O 4814   1.451   3.415   4.938
 1471WAT     H1 4815   1.481   3.380   4.854
 1471WAT     H2 4816   1.532   3.438   4.984
 1472WAT      O 4817   0.639   6.615   4.037
 1472WAT     H1 4818   0.717   6.656   4.000
 1472WAT     H2 4819   0.666   6.586   4.124
 1473WAT      O 4820   5.772   2.850   1.075
 1473WAT     H1 4821   5.686   2.880   1.105
 1473WAT     H2 4822   5.755   2.765   1.035
 1474WAT      O 4823   4.470   3.607   1.161
 1474WAT     H1 4824   4.451   3.520   1.197
 1474WAT     H2 4825   4.389   3.657   1.176
 1475WAT      O 4826   0.813   3.554   2.324
 1475WAT     H1 4827   0.906   3.568   2.308
 1475WAT     H2 4828   0.778   3.526   2.239
 1476WAT      O 4829   3.475   3.228   4.707
 1476WAT     H1 4830   3.488   3.281   4.629
 1476WAT     H2 4831   3.390   3.186   4.694
 1477WAT      O 4832   6.181   0.385   3.542
 1477WAT     H1 4833   6.121   0.381   3.468
 1477WAT     H2 4834   6.213   0.296   3.552
 1478WAT      O 4835   1.841   5.116   1.429
 1478WAT     H1 4836   1.862   5.066   1.508
 1478WAT     H2 4837   1.800   5.052   1.370
 1479WAT      O 4838   0.334   6.370   2.210
 1479WAT     H1 4839   0.272   6.404   2.144
 1479WAT     H2 4840   0.349   6.280   2.183
 1480WAT      O 4841   3.124   3.713   1.044
 1480WAT     H1 4842   3.068   3.713   0.966
 1480WAT     H2 4843   3.063   3.727   1.117
 1481WAT      O 4844   2.985   1.184   5.191
 1481WAT     H1 4845   2.960   1.106   5.240
 1481WAT     H2 4846   2.965   1.163   5.100
 1482WAT      O 4847   6.649   4.503   1.200
 1482WAT     H1 4848   6.745   4.499   1.192
 1482WAT     H2 4849   6.619   4.519   1.111
 1483WAT      O 4850   2.794   5.396   0.552
 1483WAT     H1 4851   2.725   5.450   0.515
 1483WAT     H2 4852   2.875   5.440   0.527
 1484WAT      O 4853   2.372   5.471   5.682
 1484WAT     H1 4854   2.383   5.470   5.777
 1484WAT     H2 4855   2.453   5.431   5.649
 1485WAT      O 4856   7.300   6.523   0.203
 1485WAT     H1 4857   7.221   6.527   0.149
 1485WAT     H2 4858   7.368   6.489   0.144
 1486WAT      O 4859   6.666   1.500   1.382
 1486WAT     H1 4860   6.739   1.559   1.362
 1486WAT     H2 4861   6.615   1.496   1.301
 1487WAT      O 4862   4.481   2.314   6.090
 1487WAT     H1 4863   4.540   2.361   6.149
 1487WAT     H2 4864   4.397   2.360   6.099
 1488WAT      O 4865   5.551   4.416   3.232
 1488WAT     H1 4866   5.543   4.509   3.252
 1488WAT     H2 4867   5.638   4.405   3.195
 1489WAT      O 4868   4.908   5.951   0.385
 1489WAT     H1 4869   4.855   6.004   0.326
 1489WAT     H2 4870   4.943   5.881   0.330
 1490WAT      O 4871   6.150   2.477   3.671
 1490WAT     H1 4872   6.236   2.508   3.699
 1490WAT     H2 4873   6.090   2.511   3.737
 1491WAT      O 4874   6.289   3.079   4.031
 1491WAT     H1 4875   6.385   3.081   4.030
 1491WAT     H2 4876   6.265   3.053   3.942
 1492WAT      O 4877   0.326   0.180   1.149
 1492WAT     H1 4878   0.357   0.236   1.077
 1492WAT     H2 4879   0.404   0.130   1.174
 1493WAT      O 4880   7.461   6.366   2.903
 1493WAT     H1 4881   7.516   6.290   2.884
 1493WAT     H2 4882   7.468   6.421   2.825
 1494WAT      O 4883   5.726   1.303   3.850
 1494WAT     H1 4884   5.707   1.388   3.810
 1494WAT     H2 4885   5.657   1.245   3.818
 1495WAT      O 4886   0.905   6.654   3.963
 1495WAT     H1 4887   0.937   6.734   3.922
 1495WAT     H2 4888   0.972   6.632   4.028
 1496WAT      O 4889   6.675   6.407   0.931
 1496WAT     H1 4890   6.589   6.429   0.896
 1496WAT     H2 4891   6.726   6.378   0.855
 1497WAT      O 4892   1.027   3.444   2.711
 1497WAT     H1 4893   1.005   3.464   2.802
 1497WAT     H2 4894   1.096   3.378   2.717
 1498WAT      O 4895   4.004   0.818   4.857
 1498WAT     H1 4896   4.008   0.789   4.765
 1498WAT     H2 4897   4.079   0.876   4.867
 1499WAT      O 4898   2.099   2.381   5.390
 1499WAT     H1 4899   2.030   2.441   5.361
 1499WAT     H2 4900   2.071   2.296   5.358
 1500WAT      O 4901   3.888   4.588   4.930
 1500WAT     H1 4902   3.976   4.618   4.907
 1500WAT     H2 4903   3.852   4.555   4.848
 1501WAT      O 4904   5.892   0.488   2.249
 1501WAT     H1 4905   5.960   0.493   2.317
 1501WAT     H2 4906   5.817   0.532   2.289
 1502WAT      O 4907   4.635   0.594   0.527
 1502WAT     H1 4908   4.554   0.632   0.493
 1502WAT     H2 4909   4.658   0.525   0.465
 1503WAT      O 4910   6.991   6.639   3.839
 1503WAT     H1 4911   7.062   6.614   3.898
 1503WAT     H2 4912   6.975   6.562   3.785
 1504WAT      O 4913   7.423   4.645   0.450
 1504WAT     H1 4914   7.419   4.737   0.478
 1504WAT     H2 4915   7.339   4.608   0.476
 1505WAT      O 4916   2.516   2.587   4.671
 1505WAT     H1 4917   2.439   2.563   4.619
 1505WAT     H2 4918   2.536   2.509   4.723
 1506WAT      O 4919   5.262   3.997   3.402
 1506WAT     H1 4920   5.303   3.944   3.333
 1506WAT     H2 4921   5.248   4.083   3.362
 1507WAT      O 4922   0.324   1.460   1.797
 1507WAT     H1 4923   0.392   1.425   1.741
 1507WAT     H2 4924   0.366   1.532   1.845
 1508WAT      O 4925   1.954   5.877   3.774
 1508WAT     H1 4926   1.924   5.828   3.850
 1508WAT     H2 4927   2.048   5.890   3.789
 1509WAT      O 4928   0.971   3.034   5.857
 1509WAT     H1 4929   1.041   3.076   5.808
 1509WAT     H2 4930   0.893   3.046   5.804
 1510WAT      O 4931   5.057   3.770   5.951
 1510WAT     H1 4932   5.116   3.696   5.939
 1510WAT     H2 4933   5.072   3.825   5.874
 1511WAT      O 4934   1.967   6.107   5.093
 1511WAT     H1 4935   1.997   6.164   5.023
 1511WAT     H2 4936   2.039   6.106   5.156
 1512WAT      O 4937   1.980   5.557   3.113
 1512WAT     H1 4938   1.931   5.525   3.038
 1512WAT     H2 4939   2.070   5.528   3.098
 1513WAT      O 4940   1.476   2.389   3.358
 1513WAT     H1 4941   1.558   2.341   3.367
 1513WAT     H2 4942   1.428   2.342   3.289
 1514WAT      O 4943   2.440   5.030   4.105
 1514WAT     H1 4944   2.395   5.044   4.022
 1514WAT     H2 4945   2.530   5.011   4.081
 1515WAT      O 4946   7.241   0.315   5.117
 1515WAT     H1 4947   7.262   0.255   5.189
 1515WAT     H2 4948   7.181   0.378   5.156
 1516WAT      O 4949   3.415   5.911   0.189
 1516WAT     H1 4950   3.469   5.863   0.126
 1516WAT     H2 4951   3.473   5.979   0.224
 1517WAT      O 4952   0.592   5.814   5.633
 1517WAT     H1 4953   0.630   5.855   5.555
 1517WAT     H2 4954   0.589   5.721   5.611
 1518WAT      O 4955   3.938   6.226   0.061
 1518WAT     H1 4956   3.862   6.284   0.053
 1518WAT     H2 4957   3.971   6.218  -0.029
 1519WAT      O 4958   1.098   3.283   3.094
 1519WAT     H1 4959   1.102   3.187   3.095
 1519WAT     H2 4960   1.163   3.310   3.160
 1520WAT      O 4961   6.218   2.703   5.782
 1520WAT     H1 4962   6.269   2.677   5.705
 1520WAT     H2 4963   6.166   2.777   5.753
 1521WAT      O 4964   5.949   2.752   0.742
 1521WAT     H1 4965   5.978   2.776   0.654
 1521WAT     H2 4966   5.877   2.691   0.727
 1522WAT      O 4967   4.905   5.182   0.553
 1522WAT     H1 4968   4.857   5.211   0.475
 1522WAT     H2 4969   4.947   5.261   0.587
 1523WAT      O 4970   3.904   3.267   1.978
 1523WAT     H1 4971   3.960   3.239   2.050
 1523WAT     H2 4972   3.816   3.238   2.003
 1524WAT      O 4973   6.675   4.877   2.867
 1524WAT     H1 4974   6.586   4.885   2.834
 1524WAT     H2 4975   6.729   4.918   2.799
 1525WAT      O 4976   4.592   6.033   0.477
 1525WAT     H1 4977   4.630   6.120   0.461
 1525WAT     H2 4978   4.637   6.001   0.556
 1526WAT      O 4979   0.147   1.044   6.080
 1526WAT     H1 4980   0.160   0.950   6.090
 1526WAT     H2 4981   0.063   1.061   6.122
 1527WAT      O 4982   1.856   3.467   2.764
 1527WAT     H1 4983   1.926   3.497   2.822
 1527WAT     H2 4984   1.896   3.398   2.712
 1528WAT      O 4985   4.489   4.161   2.491
 1528WAT     H1 4986   4.455   4.086   2.441
 1528WAT     H2 4987   4.497   4.231   2.426
 1529WAT      O 4988   2.933   2.435   3.277
 1529WAT     H1 4989   2.863   2.462   3.218
 1529WAT     H2 4990   2.934   2.339   3.272
 1530WAT      O 4991   7.061   0.815   1.733
 1530WAT     H1 4992   7.094   0.762   1.661
 1530WAT     H2 4993   7.119   0.892   1.735
 1531WAT      O 4994   0.727   4.894   4.074
 1531WAT     H1 4995   0.756   4.970   4.024
 1531WAT     H2 4996   0.720   4.824   4.010
 1532WAT      O 4997   0.893   0.759   1.157
 1532WAT     H1 4998   0.978   0.754   1.202
 1532WAT     H2 4999   0.873   0.668   1.135
 1533WAT      O 5000   5.366   2.744   3.763
 1533WAT     H1 5001   5.375   2.829   3.806
 1533WAT     H2 5002   5.280   2.749   3.720
 1534WAT      O 5003   6.233   6.841   2.365
 1534WAT     H1 5004   6.314   6.836   2.314
 1534WAT     H2 5005   6.183   6.910   2.322
 1535WAT      O 5006   3.675   1.395   1.906
 1535WAT     H1 5007   3.630   1.471   1.941
 1535WAT     H2 5008   3.702   1.420   1.818
 1536WAT      O 5009   6.578   5.411   0.693
 1536WAT     H1 5010   6.624   5.492   0.716
 1536WAT     H2 5011   6.638   5.366   0.633
 1537WAT      O 5012   3.779   5.654   4.421
 1537WAT     H1 5013   3.755   5.729   4.475
 1537WAT     H2 5014   3.834   5.690   4.352
 1538WAT      O 5015   7.621   5.235   0.642
 1538WAT     H1 5016   7.685   5.233   0.571
 1538WAT     H2 5017   7.538   5.213   0.601
 1539WAT      O 5018   6.678   2.272   2.151
 1539WAT     H1 5019   6.692   2.208   2.080
 1539WAT     H2 5020   6.691   2.357   2.109
 1540WAT      O 5021   5.648   3.325   0.414
 1540WAT     H1 5022   5.569   3.359   0.371
 1540WAT     H2 5023   5.718   3.382   0.383
 1541WAT      O 5024   0.336   5.622   5.909
 1541WAT     H1 5025   0.357   5.563   5.838
 1541WAT     H2 5026   0.283   5.570   5.969
 1542WAT      O 5027   1.368   2.379   3.955
 1542WAT     H1 5028   1.385   2.406   3.865
 1542WAT     H2 5029   1.453   2.348   3.987
 1543WAT      O 5030   6.205   2.178   2.338
 1543WAT     H1 5031   6.265   2.105   2.322
 1543WAT     H2 5032   6.206   2.189   2.433
 1544WAT      O 5033   1.829   5.343   3.383
 1544WAT     H1 5034   1.824   5.376   3.473
 1544WAT     H2 5035   1.873   5.258   3.391
 1545WAT      O 5036   0.782   1.817   3.962
 1545WAT     H1 5037   0.796   1.756   3.889
 1545WAT     H2 5038   0.750   1.897   3.920
 1546WAT      O 5039   2.200   0.914   4.773
 1546WAT     H1 5040   2.127   0.852   4.770
 1546WAT     H2 5041   2.190   0.957   4.858
 1547WAT      O 5042   2.250   1.293   4.181
 1547WAT     H1 5043   2.199   1.368   4.211
 1547WAT     H2 5044   2.337   1.307   4.219
 1548WAT      O 5045   3.714   6.351   5.455
 1548WAT     H1 5046   3.672   6.265   5.456
 1548WAT     H2 5047   3.801   6.335   5.418
 1549WAT      O 5048   4.740   6.233   1.300
 1549WAT     H1 5049   4.768   6.149   1.335
 1549WAT     H2 5050   4.670   6.262   1.358
 1550WAT      O 5051   3.657   3.176   2.068
 1550WAT     H1 5052   3.569   3.190   2.035
 1550WAT     H2 5053   3.645   3.151   2.159
 1551WAT      O 5054   7.012   0.009   2.906
 1551WAT     H1 5055   6.954   0.086   2.906
 1551WAT     H2 5056   7.013  -0.021   2.815
 1552WAT      O 5057   0.048   5.753   4.597
 1552WAT     H1 5058   0.004   5.796   4.523
 1552WAT     H2 5059   0.062   5.664   4.567
 1553WAT      O 5060   0.047   0.507   3.503
 1553WAT     H1 5061   0.097   0.542   3.429
 1553WAT     H2 5062   0.011   0.424   3.470
 1554WAT      O 5063   2.946   6.665   0.350
 1554WAT     H1 5064   2.944   6.696   0.260
 1554WAT     H2 5065   2.854   6.652   0.373
 1555WAT      O 5066   2.254   6.382   3.488
 1555WAT     H1 5067   2.191   6.452   3.502
 1555WAT     H2 5068   2.201   6.302   3.479
 1556WAT      O 5069   4.751   0.459   3.257
 1556WAT     H1 5070   4.680   0.397   3.236
 1556WAT     H2 5071   4.706   0.536   3.293
 1557WAT      O 5072   2.871   5.713   3.979
 1557WAT     H1 5073   2.841   5.742   4.065
 1557WAT     H2 5074   2.867   5.618   3.983
 1558WAT      O 5075   3.511   1.782   1.752
 1558WAT     H1 5076   3.603   1.808   1.758
 1558WAT     H2 5077   3.486   1.801   1.661
 1559WAT      O 5078   4.064   1.120   0.771
 1559WAT     H1 5079   4.038   1.043   0.721
 1559WAT     H2 5080   4.104   1.178   0.707
 1560WAT      O 5081   3.872   3.655   4.469
 1560WAT     H1 5082   3.892   3.744   4.441
 1560WAT     H2 5083   3.872   3.604   4.389
 1561WAT      O 5084   3.389   1.449   4.895
 1561WAT     H1 5085   3.409   1.509   4.822
 1561WAT     H2 5086   3.404   1.362   4.858
 1562WAT      O 5087   0.805   4.662   5.467
 1562WAT     H1 5088   0.846   4.580   5.438
 1562WAT     H2 5089   0.812   4.660   5.563
 1563WAT      O 5090   3.624   0.973   2.759
 1563WAT     H1 5091   3.680   1.003   2.688
 1563WAT     H2 5092   3.685   0.932   2.821
 1564WAT      O 5093   1.552   6.189   5.393
 1564WAT     H1 5094   1.470   6.143   5.375
 1564WAT     H2 5095   1.617   6.143   5.341
 1565WAT      O 5096   3.865   4.684   5.355
 1565WAT     H1 5097   3.904   4.597   5.346
 1565WAT     H2 5098   3.900   4.733   5.280
 1566WAT      O 5099   5.996   4.033   4.507
 1566WAT     H1 5100   5.938   3.978   4.454
 1566WAT     H2 5101   6.036   4.093   4.444
 1567WAT      O 5102   1.214   3.574   5.975
 1567WAT     H1 5103   1.248   3.651   5.931
 1567WAT     H2 5104   1.125   3.564   5.942
 1568WAT      O 5105   4.949   4.948   4.184
 1568WAT     H1 5106   4.933   4.965   4.091
 1568WAT     H2 5107   5.037   4.981   4.199
 1569WAT      O 5108   2.558   6.301   5.062
 1569WAT     H1 5109   2.576   6.392   5.043
 1569WAT     H2 5110   2.635   6.271   5.111
 1570WAT      O 5111   3.705   5.426   0.284
 1570WAT     H1 5112   3.778   5.401   0.227
 1570WAT     H2 5113   3.723   5.379   0.366
 1571WAT      O 5114   0.230   6.448   0.816
 1571WAT     H1 5115   0.280   6.393   0.876
 1571WAT     H2 5116   0.166   6.388   0.777
 1572WAT      O 5117   0.607   6.496   4.662
 1572WAT     H1 5118   0.546   6.442   4.712
 1572WAT     H2 5119   0.557   6.523   4.584
 1573WAT      O 5120   2.358   2.100   1.945
 1573WAT     H1 5121   2.307   2.077   1.867
 1573WAT     H2 5122   2.330   2.037   2.011
 1574WAT      O 5123   1.822   6.453   1.163
 1574WAT     H1 5124   1.781   6.465   1.248
 1574WAT     H2 5125   1.817   6.540   1.122
 1575WAT      O 5126   1.433   1.084   0.452
 1575WAT     H1 5127   1.508   1.024   0.457
 1575WAT     H2 5128   1.389   1.060   0.371
 1576WAT      O 5129   4.982   4.087   6.146
 1576WAT     H1 5130   4.925   4.026   6.098
 1576WAT     H2 5131   5.044   4.030   6.192
 1577WAT      O 5132   7.447   3.744   3.435
 1577WAT     H1 5133   7.519   3.736   3.372
 1577WAT     H2 5134   7.375   3.696   3.395
 1578WAT      O 5135   1.336   0.351   2.299
 1578WAT     H1 5136   1.318   0.257   2.295
 1578WAT     H2 5137   1.430   0.356   2.317
 1579WAT      O 5138   4.521   6.461   1.803
 1579WAT     H1 5139   4.432   6.493   1.786
 1579WAT     H2 5140   4.519   6.370   1.776
 1580WAT      O 5141   5.163   6.555   3.927
 1580WAT     H1 5142   5.163   6.547   3.832
 1580WAT     H2 5143   5.077   6.590   3.948
 1581WAT      O 5144   3.642   3.383   3.248
 1581WAT     H1 5145   3.717   3.389   3.189
 1581WAT     H2 5146   3.617   3.474   3.264
 1582WAT      O 5147   2.380   4.880   6.181
 1582WAT     H1 5148   2.411   4.789   6.174
 1582WAT     H2 5149   2.402   4.919   6.096
 1583WAT      O 5150   5.919   2.039   0.899
 1583WAT     H1 5151   5.838   2.054   0.851
 1583WAT     H2 5152   5.977   2.111   0.873
 1584WAT      O 5153   3.833   1.514   0.608
 1584WAT     H1 5154   3.895   1.518   0.681
 1584WAT     H2 5155   3.886   1.532   0.530
 1585WAT      O 5156   3.545   4.528   2.445
 1585WAT     H1 5157   3.556   4.556   2.536
 1585WAT     H2 5158   3.600   4.450   2.437
 1586WAT      O 5159   6.896   4.082   5.994
 1586WAT     H1 5160   6.834   4.144   5.957
 1586WAT     H2 5161   6.892   4.006   5.937
 1587WAT      O 5162   3.838   1.302   4.197
 1587WAT     H1 5163   3.745   1.320   4.184
 1587WAT     H2 5164   3.878   1.321   4.112
 1588WAT      O 5165   0.534   0.370   5.647
 1588WAT     H1 5166   0.440   0.387   5.637
 1588WAT     H2 5167   0.560   0.326   5.566
 1589WAT      O 5168   1.353   3.759   5.840
 1589WAT     H1 5169   1.356   3.803   5.755
 1589WAT     H2 5170   1.433   3.785   5.884
 1590WAT      O 5171   7.127   5.511   1.532
 1590WAT     H1 5172   7.169   5.508   1.445
 1590WAT     H2 5173   7.155   5.596   1.568
 1591WAT      O 5174   0.397   3.388   5.132
 1591WAT     H1 5175   0.402   3.464   5.074
 1591WAT     H2 5176   0.487   3.356   5.138
 1592WAT      O 5177   1.220   4.194   3.347
 1592WAT     H1 5178   1.222   4.099   3.334
 1592WAT     H2 5179   1.291   4.227   3.292
 1593WAT      O 5180   2.201   2.028   1.738
 1593WAT     H1 5181   2.213   2.105   1.682
 1593WAT     H2 5182   2.127   1.982   1.701
 1594WAT      O 5183   4.552   3.892   5.896
 1594WAT     H1 5184   4.500   3.901   5.976
 1594WAT     H2 5185   4.622   3.832   5.919
 1595WAT      O 5186   6.587   2.601   6.044
 1595WAT     H1 5187   6.668   2.550   6.052
 1595WAT     H2 5188   6.604   2.662   5.972
 1596WAT      O 5189   0.427   2.900   2.605
 1596WAT     H1 5190   0.447   2.819   2.558
 1596WAT     H2 5191   0.418   2.966   2.536
 1597WAT      O 5192   0.382   3.084   1.914
 1597WAT     H1 5193   0.319   3.104   1.983
 1597WAT     H2 5194   0.357   3.141   1.842
 1598WAT      O 5195   4.810   2.398   4.691
 1598WAT     H1 5196   4.725   2.401   4.647
 1598WAT     H2 5197   4.866   2.346   4.633
 1599WAT      O 5198   4.867   2.679   0.974
 1599WAT     H1 5199   4.859   2.588   0.947
 1599WAT     H2 5200   4.901   2.724   0.896
 1600WAT      O 5201   6.791   3.205   0.449
 1600WAT     H1 5202   6.836   3.185   0.366
 1600WAT     H2 5203   6.698   3.199   0.428
 1601WAT      O 5204   6.642   2.034   3.066
 1601WAT     H1 5205   6.548   2.038   3.049
 1601WAT     H2 5206   6.677   2.115   3.029
 1602WAT      O 5207   2.045   1.182   4.671
 1602WAT     H1 5208   1.965   1.218   4.708
 1602WAT     H2 5209   2.108   1.186   4.744
 1603WAT      O 5210   0.445   6.250   3.131
 1603WAT     H1 5211   0.396   6.292   3.060
 1603WAT     H2 5212   0.478   6.168   3.092
 1604WAT      O 5213   2.984   0.421   1.665
 1604WAT     H1 5214   3.058   0.405   1.723
 1604WAT     H2 5215   3.010   0.498   1.614
 1605WAT      O 5216   4.965   5.249   3.007
 1605WAT     H1 5217   4.912   5.170   3.009
 1605WAT     H2 5218   4.980   5.266   2.914
 1606WAT      O 5219   1.402   6.405   4.519
 1606WAT     H1 5220   1.476   6.465   4.512
 1606WAT     H2 5221   1.364   6.423   4.604
 1607WAT      O 5222   0.890   1.405   2.547
 1607WAT     H1 5223   0.835   1.364   2.479
 1607WAT     H2 5224   0.908   1.493   2.514
 1608WAT      O 5225   7.097   2.718   3.779
 1608WAT     H1 5226   7.169   2.657   3.762
 1608WAT     H2 5227   7.018   2.669   3.758
 1609WAT      O 5228   4.856   1.840   2.966
 1609WAT     H1 5229   4.790   1.771   2.958
 1609WAT     H2 5230   4.939   1.794   2.957
 1610WAT      O 5231   4.231   5.457   1.719
 1610WAT     H1 5232   4.311   5.465   1.770
 1610WAT     H2 5233   4.258   5.414   1.638
 1611WAT      O 5234   3.160   4.628   1.326
 1611WAT     H1 5235   3.178   4.615   1.233
 1611WAT     H2 5236   3.194   4.715   1.345
 1612WAT      O 5237   4.407   1.381   5.397
 1612WAT     H1 5238   4.420   1.476   5.391
 1612WAT     H2 5239   4.453   1.345   5.321
 1613WAT      O 5240   7.591   0.035   5.900
 1613WAT     H1 5241   7.649   0.062   5.828
 1613WAT     H2 5242   7.515  -0.003   5.856
 1614WAT      O 5243   1.580   2.857   4.304
 1614WAT     H1 5244   1.654   2.800   4.321
 1614WAT     H2 5245   1.504   2.799   4.301
 1615WAT      O 5246   1.099   0.288   0.318
 1615WAT     H1 5247   1.043   0.315   0.245
 1615WAT     H2 5248   1.040   0.243   0.378
 1616WAT      O 5249   5.232   6.520   4.654
 1616WAT     H1 5250   5.248   6.437   4.700
 1616WAT     H2 5251   5.187   6.495   4.574
 1617WAT      O 5252   7.014   0.464   4.885
 1617WAT     H1 5253   7.094   0.473   4.937
 1617WAT     H2 5254   6.992   0.371   4.893
 1618WAT      O 5255   5.685   4.742   3.071
 1618WAT     H1 5256   5.591   4.751   3.052
 1618WAT     H2 5257   5.690   4.665   3.126
 1619WAT      O 5258   0.281   0.605   4.157
 1619WAT     H1 5259   0.232   0.664   4.215
 1619WAT     H2 5260   0.221   0.586   4.085
 1620WAT      O 5261   6.589   3.108   5.906
 1620WAT     H1 5262   6.626   3.165   5.973
 1620WAT     H2 5263   6.625   3.021   5.926
 1621WAT      O 5264   7.012   5.847   5.594
 1621WAT     H1 5265   7.095   5.801   5.576
 1621WAT     H2 5266   7.015   5.924   5.537
 1622WAT      O 5267   7.232   2.625   0.966
 1622WAT     H1 5268   7.166   2.676   0.919
 1622WAT     H2 5269   7.196   2.537   0.971
 1623WAT      O 5270   6.916   7.131   0.323
 1623WAT     H1 5271   6.821   7.130   0.306
 1623WAT     H2 5272   6.947   7.048   0.288
 1624WAT      O 5273   7.009   3.711   1.962
 1624WAT     H1 5274   7.009   3.778   2.031
 1624WAT     H2 5275   6.965   3.753   1.888
 1625WAT      O 5276   5.659   0.926   5.827
 1625WAT     H1 5277   5.605   0.961   5.756
 1625WAT     H2 5278   5.732   0.884   5.783
 1626WAT      O 5279   4.533   3.667   5.000
 1626WAT     H1 5280   4.589   3.738   4.967
 1626WAT     H2 5281   4.545   3.669   5.095
 1627WAT      O 5282   3.087   4.602   5.362
 1627WAT     H1 5283   3.150   4.658   5.317
 1627WAT     H2 5284   3.002   4.642   5.344
 1628WAT      O 5285   2.763   0.414   4.943
 1628WAT     H1 5286   2.668   0.402   4.940
 1628WAT     H2 5287   2.778   0.472   5.017
 1629WAT      O 5288   2.285   3.707   4.768
 1629WAT     H1 5289   2.226   3.772   4.730
 1629WAT     H2 5290   2.255   3.624   4.732
 1630WAT      O 5291   6.091   2.931   0.877
 1630WAT     H1 5292   6.045   2.878   0.813
 1630WAT     H2 5293   6.156   2.873   0.916
 1631WAT      O 5294   1.371   5.056   6.081
 1631WAT     H1 5295   1.344   4.964   6.074
 1631WAT     H2 5296   1.323   5.100   6.011
 1632WAT      O 5297   5.245   6.058   2.021
 1632WAT     H1 5298   5.216   6.099   1.940
 1632WAT     H2 5299   5.246   6.130   2.085
 1633WAT      O 5300   7.568   0.636   3.707
 1633WAT     H1 5301   7.610   0.605   3.626
 1633WAT     H2 5302   7.483   0.592   3.708
 1634WAT      O 5303   0.215   4.431   4.706
 1634WAT     H1 5304   0.291   4.475   4.666
 1634WAT     H2 5305   0.214   4.344   4.666
 1635WAT      O 5306   1.578   0.360   1.734
 1635WAT     H1 5307   1.602   0.307   1.810
 1635WAT     H2 5308   1.483   0.360   1.734
 1636WAT      O 5309   0.730   6.776   5.567
 1636WAT     H1 5310   0.712   6.750   5.477
 1636WAT     H2 5311   0.672   6.720   5.620
 1637WAT      O 5312   4.510   5.157   3.699
 1637WAT     H1 5313   4.561   5.204   3.634
 1637WAT     H2 5314   4.560   5.076   3.714
 1638WAT      O 5315   1.973   2.604   6.233
 1638WAT     H1 5316   2.007   2.514   6.234
 1638WAT     H2 5317   1.885   2.595   6.196
 1639WAT      O 5318   5.078   4.777   2.991
 1639WAT     H1 5319   5.085   4.682   3.006
 1639WAT     H2 5320   4.996   4.787   2.942
 1640WAT      O 5321   1.707   4.896   4.228
 1640WAT     H1 5322   1.787   4.938   4.257
 1640WAT     H2 5323   1.727   4.802   4.228
 1641WAT      O 5324   3.141   2.566   5.887
 1641WAT     H1 5325   3.111   2.480   5.917
 1641WAT     H2 5326   3.196   2.548   5.811
 1642WAT      O 5327   2.120   6.185   0.562
 1642WAT     H1 5328   2.203   6.164   0.607
 1642WAT     H2 5329   2.099   6.274   0.591
 1643WAT      O 5330   6.205   1.871   1.267
 1643WAT     H1 5331   6.111   1.864   1.287
 1643WAT     H2 5332   6.245   1.803   1.321
 1644WAT      O 5333   3.354   6.472   1.034
 1644WAT     H1 5334   3.309   6.474   1.118
 1644WAT     H2 5335   3.301   6.415   0.979
 1645WAT      O 5336   6.992   0.111   1.232
 1645WAT     H1 5337   6.947   0.154   1.160
 1645WAT     H2 5338   7.038   0.181   1.278
 1646WAT      O 5339   2.905   4.385   4.315
 1646WAT     H1 5340   2.914   4.409   4.223
 1646WAT     H2 5341   2.895   4.289   4.314
 1647WAT      O 5342   6.484   0.496   3.457
 1647WAT     H1 5343   6.419   0.502   3.527
 1647WAT     H2 5344   6.566   0.476   3.502
 1648WAT      O 5345   1.171   6.450   0.683
 1648WAT     H1 5346   1.238   6.423   0.620
 1648WAT     H2 5347   1.089   6.444   0.635
 1649WAT      O 5348   2.666   4.002   0.900
 1649WAT     H1 5349   2.687   4.078   0.845
 1649WAT     H2 5350   2.596   4.034   0.957
 1650WAT      O 5351   4.295   1.403   0.762
 1650WAT     H1 5352   4.355   1.459   0.712
 1650WAT     H2 5353   4.351   1.354   0.821
 1651WAT      O 5354   3.955   1.672   5.039
 1651WAT     H1 5355   3.897   1.730   4.990
 1651WAT     H2 5356   3.902   1.641   5.112
 1652WAT      O 5357   6.353   1.943   2.333
 1652WAT     H1 5358   6.408   1.974   2.405
 1652WAT     H2 5359   6.413   1.940   2.258
 1653WAT      O 5360   1.100   0.051   2.082
 1653WAT     H1 5361   1.046   0.103   2.142
 1653WAT     H2 5362   1.047  -0.027   2.063
 1654WAT      O 5363   6.833   3.397   0.634
 1654WAT     H1 5364   6.822   3.334   0.563
 1654WAT     H2 5365   6.920   3.435   0.620
 1655WAT      O 5366   1.822   2.315   0.072
 1655WAT     H1 5367   1.747   2.367   0.098
 1655WAT     H2 5368   1.892   2.340   0.133
 1656WAT      O 5369   2.448   1.381   4.349
 1656WAT     H1 5370   2.427   1.409   4.438
 1656WAT     H2 5371   2.521   1.437   4.322
 1657WAT      O 5372   5.713   6.995   3.037
 1657WAT     H1 5373   5.760   6.999   3.121
 1657WAT     H2 5374   5.703   6.902   3.019
 1658WAT      O 5375   5.014   4.092   1.840
 1658WAT     H1 5376   5.014   4.001   1.812
 1658WAT     H2 5377   4.994   4.142   1.761
 1659WAT      O 5378   2.945   0.511   2.411
 1659WAT     H1 5379   2.890   0.534   2.486
 1659WAT     H2 5380   2.933   0.583   2.349
 1660WAT      O 5381   6.551   5.153   1.753
 1660WAT     H1 5382   6.605   5.074   1.763
 1660WAT     H2 5383   6.571   5.185   1.665
 1661WAT      O 5384   3.214   0.387   0.356
 1661WAT     H1 5385   3.261   0.335   0.290
 1661WAT     H2 5386   3.274   0.392   0.430
 1662WAT      O 5387   2.235   5.541   3.847
 1662WAT     H1 5388   2.229   5.469   3.909
 1662WAT     H2 5389   2.171   5.520   3.779
 1663WAT      O 5390   4.982   1.548   5.277
 1663WAT     H1 5391   4.977   1.453   5.271
 1663WAT     H2 5392   5.047   1.573   5.211
 1664WAT      O 5393   4.954   5.067   3.950
 1664WAT     H1 5394   4.899   5.129   3.901
 1664WAT     H2 5395   5.028   5.049   3.891
 1665WAT      O 5396   5.813   2.576   0.434
 1665WAT     H1 5397   5.754   2.560   0.360
 1665WAT     H2 5398   5.899   2.548   0.404
 1666WAT      O 5399   4.776   4.477   1.375
 1666WAT     H1 5400   4.794   4.384   1.388
 1666WAT     H2 5401   4.763   4.486   1.280
 1667WAT      O 5402   4.456   6.728   0.443
 1667WAT     H1 5403   4.469   6.714   0.349
 1667WAT     H2 5404   4.526   6.678   0.485
 1668WAT      O 5405   4.473   4.148   3.694
 1668WAT     H1 5406   4.551   4.099   3.670
 1668WAT     H2 5407   4.459   4.208   3.621
 1669WAT      O 5408   5.019   1.074   3.889
 1669WAT     H1 5409   5.045   1.049   3.800
 1669WAT     H2 5410   4.926   1.052   3.894
 1670WAT      O 5411   4.684   5.456   1.704
 1670WAT     H1 5412   4.656   5.393   1.637
 1670WAT     H2 5413   4.764   5.418   1.740
 1671WAT      O 5414   1.987   0.122   0.764
 1671WAT     H1 5415   2.071   0.152   0.729
 1671WAT     H2 5416   1.927   0.130   0.690
 1672WAT      O 5417   2.059   1.326   0.020
 1672WAT     H1 5418   2.037   1.234   0.033
 1672WAT     H2 5419   1.979   1.364  -0.018
 1673WAT      O 5420   4.038   1.524   1.095
 1673WAT     H1 5421   3.965   1.534   1.156
 1673WAT     H2 5422   4.075   1.612   1.087
 1674WAT      O 5423   4.298   5.117   1.131
 1674WAT     H1 5424   4.213   5.075   1.120
 1674WAT     H2 5425   4.319   5.154   1.045
 1675WAT      O 5426   5.667   0.081   2.790
 1675WAT     H1 5427   5.612   0.102   2.865
 1675WAT     H2 5428   5.635  -0.004   2.760
 1676WAT      O 5429   4.953   1.143   6.030
 1676WAT     H1 5430   5.034   1.189   6.052
 1676WAT     H2 5431   4.956   1.132   5.935
 1677WAT      O 5432   0.868   4.037   3.401
 1677WAT     H1 5433   0.918   4.036   3.319
 1677WAT     H2 5434   0.911   3.973   3.456
 1678WAT      O 5435   0.400   3.550   3.396
 1678WAT     H1 5436   0.336   3.518   3.332
 1678WAT     H2 5437   0.457   3.474   3.412
 1679WAT      O 5438   5.922   0.616   1.471
 1679WAT     H1 5439   5.920   0.659   1.556
 1679WAT     H2 5440   5.909   0.523   1.491
 1680WAT      O 5441   3.533   6.500   4.695
 1680WAT     H1 5442   3.508   6.580   4.649
 1680WAT     H2 5443   3.532   6.524   4.788
 1681WAT      O 5444   1.247   1.242   2.133
 1681WAT     H1 5445   1.160   1.219   2.098
 1681WAT     H2 5446   1.244   1.213   2.224
 1682WAT      O 5447   6.827   0.510   4.032
 1682WAT     H1 5448   6.777   0.429   4.020
 1682WAT     H2 5449   6.841   0.516   4.126
 1683WAT      O 5450   3.486   5.296   2.980
 1683WAT     H1 5451   3.432   5.274   2.904
 1683WAT     H2 5452   3.549   5.360   2.947
 1684WAT      O 5453   3.516   1.538   1.326
 1684WAT     H1 5454   3.428   1.553   1.362
 1684WAT     H2 5455   3.506   1.549   1.232
 1685WAT      O 5456   5.334   3.019   5.644
 1685WAT     H1 5457   5.423   2.997   5.670
 1685WAT     H2 5458   5.334   3.012   5.548
 1686WAT      O 5459   4.010   1.510   3.404
 1686WAT     H1 5460   4.052   1.590   3.435
 1686WAT     H2 5461   4.064   1.439   3.440
 1687WAT      O 5462   4.336   0.178   0.145
 1687WAT     H1 5463   4.360   0.159   0.055
 1687WAT     H2 5464   4.341   0.094   0.190
 1688WAT      O 5465   2.834   0.455   4.242
 1688WAT     H1 5466   2.745   0.430   4.217
 1688WAT     H2 5467   2.882   0.372   4.247
 1689WAT      O 5468   7.054   4.852   2.788
 1689WAT     H1 5469   6.980   4.896   2.747
 1689WAT     H2 5470   7.130   4.884   2.740
 1690WAT      O 5471   6.506   0.244   5.168
 1690WAT     H1 5472   6.435   0.210   5.113
 1690WAT     H2 5473   6.495   0.199   5.252
 1691WAT      O 5474   6.910   4.536   1.164
 1691WAT     H1 5475   6.903   4.601   1.233
 1691WAT     H2 5476   6.974   4.572   1.103
 1692WAT      O 5477   1.768   0.814   3.041
 1692WAT     H1 5478   1.803   0.861   2.965
 1692WAT     H2 5479   1.723   0.738   3.004
 1693WAT      O 5480   3.655   4.221   0.845
 1693WAT     H1 5481   3.617   4.156   0.785
 1693WAT     H2 5482   3.750   4.213   0.832
 1694WAT      O 5483   6.135   5.240   3.978
 1694WAT     H1 5484   6.172   5.201   4.057
 1694WAT     H2 5485   6.055   5.191   3.962
 1695WAT      O 5486   3.842   2.336   5.934
 1695WAT     H1 5487   3.857   2.246   5.964
 1695WAT     H2 5488   3.783   2.327   5.860
 1696WAT      O 5489   4.123   4.472   4.069
 1696WAT     H1 5490   4.167   4.424   3.999
 1696WAT     H2 5491   4.133   4.564   4.045
 1697WAT      O 5492   5.079   1.499   0.354
 1697WAT     H1 5493   5.036   1.532   0.275
 1697WAT     H2 5494   5.170   1.486   0.329
 1698WAT      O 5495   5.224   6.041   5.647
 1698WAT     H1 5496   5.150   6.097   5.669
 1698WAT     H2 5497   5.185   5.968   5.599
 1699WAT      O 5498   2.948   5.027   3.015
 1699WAT     H1 5499   3.020   5.088   3.029
 1699WAT     H2 5500   2.892   5.071   2.950
 1700WAT      O 5501   7.008   1.658   1.094
 1700WAT     H1 5502   7.095   1.691   1.072
 1700WAT     H2 5503   7.023   1.592   1.162
 1701WAT      O 5504   6.323   4.731   5.761
 1701WAT     H1 5505   6.408   4.724   5.719
 1701WAT     H2 5506   6.260   4.728   5.689
 1702WAT      O 5507   6.477   0.010   3.725
 1702WAT     H1 5508   6.567  -0.022   3.737
 1702WAT     H2 5509   6.433  -0.014   3.807
 1703WAT      O 5510   3.055   1.448   3.015
 1703WAT     H1 5511   2.971   1.459   3.057
 1703WAT     H2 5512   3.047   1.365   2.967
 1704WAT      O 5513   3.454   3.908   0.080
 1704WAT     H1 5514   3.473   3.889  -0.011
 1704WAT     H2 5515   3.538   3.896   0.125
 1705WAT      O 5516   1.885   3.515   1.121
 1705WAT     H1 5517   1.962   3.542   1.170
 1705WAT     H2 5518   1.904   3.425   1.094
 1706WAT      O 5519   6.959   3.857   3.868
 1706WAT     H1 5520   6.879   3.896   3.834
 1706WAT     H2 5521   7.003   3.821   3.791
 1707WAT      O 5522   1.875   3.030   4.490
 1707WAT     H1 5523   1.796   3.036   4.543
 1707WAT     H2 5524   1.852   3.070   4.406
 1708WAT      O 5525   3.478   0.672   3.569
 1708WAT     H1 5526   3.490   0.678   3.474
 1708WAT     H2 5527   3.563   0.696   3.605
 1709WAT      O 5528   5.810   2.758   4.871
 1709WAT     H1 5529   5.793   2.694   4.801
 1709WAT     H2 5530   5.893   2.798   4.847
 1710WAT      O 5531   2.485   6.144   6.059
 1710WAT     H1 5532   2.451   6.057   6.040
 1710WAT     H2 5533   2.434   6.203   6.003
 1711WAT      O 5534   3.354   7.079   5.142
 1711WAT     H1 5535   3.373   7.134   5.218
 1711WAT     H2 5536   3.393   7.127   5.068
 1712WAT      O 5537   7.340   4.461   5.125
 1712WAT     H1 5538   7.380   4.458   5.038
 1712WAT     H2 5539   7.408   4.494   5.183
 1713WAT      O 5540   0.661   0.668   5.488
 1713WAT     H1 5541   0.614   0.602   5.437
 1713WAT     H2 5542   0.665   0.744   5.429
 1714WAT      O 5543   6.756   4.503   1.535
 1714WAT     H1 5544   6.780   4.424   1.583
 1714WAT     H2 5545   6.696   4.472   1.467
 1715WAT      O 5546   1.240   6.138   3.950
 1715WAT     H1 5547   1.229   6.135   3.855
 1715WAT     H2 5548   1.275   6.052   3.973
 1716WAT      O 5549   4.310   6.759   3.751
 1716WAT     H1 5550   4.337   6.714   3.671
 1716WAT     H2 5551   4.221   6.728   3.767
 1717WAT      O 5552   1.176   5.634   0.600
 1717WAT     H1 5553   1.237   5.615   0.529
 1717WAT     H2 5554   1.222   5.609   0.680
 1718WAT      O 5555   5.003   5.755   6.206
 1718WAT     H1 5556   4.909   5.761   6.188
 1718WAT     H2 5557   5.037   5.842   6.189
 1719WAT      O 5558   1.770   5.700   0.552
 1719WAT     H1 5559   1.818   5.632   0.600
 1719WAT     H2 5560   1.821   5.780   0.566
 1720WAT      O 5561   2.204   4.556   4.496
 1720WAT     H1 5562   2.121   4.605   4.496
 1720WAT     H2 5563   2.263   4.609   4.549
 1721WAT      O 5564   3.107   6.409   5.562
 1721WAT     H1 5565   3.083   6.375   5.477
 1721WAT     H2 5566   3.193   6.370   5.580
 1722WAT      O 5567   1.930   6.870   3.392
 1722WAT     H1 5568   1.956   6.869   3.299
 1722WAT     H2 5569   1.845   6.825   3.393
 1723WAT      O 5570   1.521   0.629   3.538
 1723WAT     H1 5571   1.588   0.692   3.568
 1723WAT     H2 5572   1.530   0.628   3.443
 1724WAT      O 5573   6.644   3.915   2.090
 1724WAT     H1 5574   6.670   3.999   2.129
 1724WAT     H2 5575   6.707   3.901   2.019
 1725WAT      O 5576   7.339   1.762   6.211
 1725WAT     H1 5577   7.254   1.726   6.237
 1725WAT     H2 5578   7.322   1.807   6.128
 1726WAT      O 5579   0.320   0.461   4.921
 1726WAT     H1 5580   0.298   0.553   4.906
 1726WAT     H2 5581   0.384   0.462   4.992
 1727WAT      O 5582   6.737   2.154   1.543
 1727WAT     H1 5583   6.748   2.224   1.479
 1727WAT     H2 5584   6.643   2.135   1.543
 1728WAT      O 5585   4.525   5.866   6.076
 1728WAT     H1 5586   4.464   5.841   6.007
 1728WAT     H2 5587   4.476   5.928   6.130
 1729WAT      O 5588   3.998   5.123   2.142
 1729WAT     H1 5589   3.988   5.204   2.193
 1729WAT     H2 5590   4.014   5.153   2.053
 1730WAT      O 5591   6.190   4.000   1.790
 1730WAT     H1 5592   6.163   3.955   1.870
 1730WAT     H2 5593   6.196   4.092   1.816
 1731WAT      O 5594   0.093   5.934   4.126
 1731WAT     H1 5595   0.035   5.992   4.077
 1731WAT     H2 5596   0.160   5.993   4.163
 1732WAT      O 5597   5.054   2.569   1.455
 1732WAT     H1 5598   5.003   2.616   1.521
 1732WAT     H2 5599   5.039   2.618   1.374
 1733WAT      O 5600   0.165   1.161   0.373
 1733WAT     H1 5601   0.081   1.117   0.368
 1733WAT     H2 5602   0.201   1.156   0.284
 1734WAT      O 5603   1.731   0.805   5.524
 1734WAT     H1 5604   1.745   0.855   5.444
 1734WAT     H2 5605   1.751   0.715   5.500
 1735WAT      O 5606   6.696   6.771   3.555
 1735WAT     H1 5607   6.696   6.754   3.461
 1735WAT     H2 5608   6.758   6.843   3.566
 1736WAT      O 5609   1.537   1.558   3.148
 1736WAT     H1 5610   1.525   1.636   3.094
 1736WAT     H2 5611   1.522   1.484   3.088
 1737WAT      O 5612   7.619   3.641   4.669
 1737WAT     H1 5613   7.544   3.648   4.727
 1737WAT     H2 5614   7.584   3.660   4.582
 1738WAT      O 5615   0.454   1.473   0.482
 1738WAT     H1 5616   0.391   1.495   0.413
 1738WAT     H2 5617   0.539   1.483   0.441
 1739WAT      O 5618   3.212   4.169   0.365
 1739WAT     H1 5619   3.222   4.126   0.280
 1739WAT     H2 5620   3.291   4.221   0.375
 1740WAT      O 5621   0.290   1.764   6.154
 1740WAT     H1 5622   0.382   1.762   6.129
 1740WAT     H2 5623   0.244   1.727   6.078
 1741WAT      O 5624   2.147   0.788   0.817
 1741WAT     H1 5625   2.180   0.862   0.867
 1741WAT     H2 5626   2.135   0.822   0.728
 1742WAT      O 5627   5.318   6.575   2.590
 1742WAT     H1 5628   5.391   6.636   2.577
 1742WAT     H2 5629   5.347   6.516   2.659
 1743WAT      O 5630   7.300   4.075   0.979
 1743WAT     H1 5631   7.252   4.156   0.959
 1743WAT     H2 5632   7.263   4.010   0.918
 1744WAT      O 5633   2.134   1.437   5.066
 1744WAT     H1 5634   2.135   1.398   5.153
 1744WAT     H2 5635   2.084   1.518   5.077
 1745WAT      O 5636   3.805   3.253   5.475
 1745WAT     H1 5637   3.746   3.177   5.476
 1745WAT     H2 5638   3.796   3.289   5.386
 1746WAT      O 5639   3.225   0.619   3.670
 1746WAT     H1 5640   3.192   0.572   3.593
 1746WAT     H2 5641   3.318   0.633   3.651
 1747WAT      O 5642   4.859   3.867   4.691
 1747WAT     H1 5643   4.932   3.842   4.748
 1747WAT     H2 5644   4.891   3.943   4.643
 1748WAT      O 5645   4.451   5.384   3.169
 1748WAT     H1 5646   4.393   5.351   3.101
 1748WAT     H2 5647   4.483   5.306   3.214
 1749WAT      O 5648   6.061   1.548   3.016
 1749WAT     H1 5649   6.125   1.619   3.017
 1749WAT     H2 5650   6.027   1.547   2.927
 1750WAT      O 5651   0.234   5.760   3.883
 1750WAT     H1 5652   0.209   5.672   3.910
 1750WAT     H2 5653   0.189   5.818   3.944
 1751WAT      O 5654   3.277   4.495   1.055
 1751WAT     H1 5655   3.335   4.488   0.978
 1751WAT     H2 5656   3.312   4.432   1.117
 1752WAT      O 5657   6.396   1.298   3.047
 1752WAT     H1 5658   6.471   1.346   3.012
 1752WAT     H2 5659   6.374   1.235   2.978
 1753WAT      O 5660   6.964   3.669   5.914
 1753WAT     H1 5661   6.876   3.657   5.950
 1753WAT     H2 5662   6.960   3.754   5.870
 1754WAT      O 5663   1.769   0.218   0.416
 1754WAT     H1 5664   1.785   0.151   0.483
 1754WAT     H2 5665   1.826   0.194   0.343
 1755WAT      O 5666   0.222   1.013   2.511
 1755WAT     H1 5667   0.232   1.003   2.416
 1755WAT     H2 5668   0.307   1.044   2.541
 1756WAT      O 5669   3.432   0.316   5.624
 1756WAT     H1 5670   3.369   0.349   5.688
 1756WAT     H2 5671   3.514   0.359   5.647
 1757WAT      O 5672   1.689   6.233   5.634
 1757WAT     H1 5673   1.606   6.195   5.606
 1757WAT     H2 5674   1.749   6.214   5.562
 1758WAT      O 5675   4.989   6.978   1.098
 1758WAT     H1 5676   5.077   6.982   1.134
 1758WAT     H2 5677   4.978   6.887   1.070
 1759WAT      O 5678   4.295   4.368   1.235
 1759WAT     H1 5679   4.352   4.291   1.231
 1759WAT     H2 5680   4.280   4.382   1.328
 1760WAT      O 5681   5.605   3.209   5.543
 1760WAT     H1 5682   5.543   3.178   5.478
 1760WAT     H2 5683   5.576   3.297   5.565
 1761WAT      O 5684   6.196   4.836   1.410
 1761WAT     H1 5685   6.231   4.865   1.494
 1761WAT     H2 5686   6.190   4.916   1.358
 1762WAT      O 5687   0.114   4.413   0.313
 1762WAT     H1 5688   0.150   4.475   0.376
 1762WAT     H2 5689   0.147   4.328   0.342
 1763WAT      O 5690   1.960   0.457   0.694
 1763WAT     H1 5691   1.931   0.513   0.622
 1763WAT     H2 5692   2.021   0.395   0.653
 1764WAT      O 5693   6.377   6.234   1.821
 1764WAT     H1 5694   6.347   6.156   1.775
 1764WAT     H2 5695   6.464   6.212   1.853
 1765WAT      O 5696   5.662   0.568   4.203
 1765WAT     H1 5697   5.649   0.475   4.219
 1765WAT     H2 5698   5.704   0.572   4.117
 1766WAT      O 5699   6.155   4.351   3.321
 1766WAT     H1 5700   6.090   4.286   3.297
 1766WAT     H2 5701   6.234   4.325   3.274
 1767WAT      O 5702   2.094   3.166   0.760
 1767WAT     H1 5703   2.156   3.172   0.833
 1767WAT     H2 5704   2.061   3.076   0.765
 1768WAT      O 5705   6.058   2.693   2.110
 1768WAT     H1 5706   6.050   2.647   2.026
 1768WAT     H2 5707   5.979   2.746   2.115
 1769WAT      O 5708   6.443   6.344   5.447
 1769WAT     H1 5709   6.519   6.374   5.398
 1769WAT     H2 5710   6.411   6.268   5.398
 1770WAT      O 5711   1.232   4.093   6.005
 1770WAT     H1 5712   1.224   4.137   6.090
 1770WAT     H2 5713   1.183   4.011   6.016
 1771WAT      O 5714   5.033   1.478   1.038
 1771WAT     H1 5715   4.976   1.554   1.034
 1771WAT     H2 5716   5.096   1.498   1.107
 1772WAT      O 5717   0.499   0.120   3.654
 1772WAT     H1 5718   0.577   0.166   3.687
 1772WAT     H2 5719   0.479   0.163   3.572
 1773WAT      O 5720   1.021   3.760   3.442
 1773WAT     H1 5721   0.959   3.718   3.502
 1773WAT     H2 5722   1.035   3.695   3.373
 1774WAT      O 5723   0.730   0.923   3.148
 1774WAT     H1 5724   0.805   0.871   3.178
 1774WAT     H2 5725   0.764   0.974   3.075
 1775WAT      O 5726   5.269   6.025   3.883
 1775WAT     H1 5727   5.191   6.026   3.828
 1775WAT     H2 5728   5.236   6.041   3.972
 1776WAT      O 5729   2.703   5.206   2.928
 1776WAT     H1 5730   2.671   5.292   2.953
 1776WAT     H2 5731   2.640   5.145   2.968
 1777WAT      O 5732   2.535   3.908   2.476
 1777WAT     H1 5733   2.564   3.817   2.475
 1777WAT     H2 5734   2.564   3.942   2.561
 1778WAT      O 5735   7.115   5.392   2.503
 1778WAT     H1 5736   7.208   5.417   2.508
 1778WAT     H2 5737   7.117   5.298   2.482
 1779WAT      O 5738   3.211   0.616   3.092
 1779WAT     H1 5739   3.271   0.646   3.024
 1779WAT     H2 5740   3.155   0.551   3.048
 1780WAT      O 5741   5.252   5.258   3.348
 1780WAT     H1 5742   5.185   5.319   3.316
 1780WAT     H2 5743   5.334   5.306   3.340
 1781WAT      O 5744   6.790   1.247   5.022
 1781WAT     H1 5745   6.763   1.156   5.035
 1781WAT     H2 5746   6.844   1.245   4.943
 1782WAT      O 5747   5.904   2.533   0.923
 1782WAT     H1 5748   5.847   2.502   0.852
 1782WAT     H2 5749   5.918   2.626   0.904
 1783WAT      O 5750   7.463   3.928   4.823
 1783WAT     H1 5751   7.552   3.921   4.858
 1783WAT     H2 5752   7.418   3.850   4.857
 1784WAT      O 5753   6.135   4.273   5.050
 1784WAT     H1 5754   6.185   4.286   5.131
 1784WAT     H2 5755   6.047   4.253   5.080
 1785WAT      O 5756   7.511   1.186   3.349
 1785WAT     H1 5757   7.437   1.143   3.306
 1785WAT     H2 5758   7.520   1.269   3.302
 1786WAT      O 5759   5.262   5.034   5.028
 1786WAT     H1 5760   5.221   5.119   5.042
 1786WAT     H2 5761   5.275   5.030   4.933
 1787WAT      O 5762   3.561   1.890   1.120
 1787WAT     H1 5763   3.608   1.855   1.044
 1787WAT     H2 5764   3.617   1.962   1.151
 1788WAT      O 5765   1.181   1.735   5.473
 1788WAT     H1 5766   1.168   1.671   5.543
 1788WAT     H2 5767   1.268   1.716   5.438
 1789WAT      O 5768   1.676   3.660   2.672
 1789WAT     H1 5769   1.743   3.615   2.724
 1789WAT     H2 5770   1.625   3.590   2.632
 1790WAT      O 5771   6.512   2.207   2.377
 1790WAT     H1 5772   6.461   2.286   2.398
 1790WAT     H2 5773   6.581   2.239   2.318
 1791WAT      O 5774   6.812   4.543   2.196
 1791WAT     H1 5775   6.827   4.519   2.287
 1791WAT     H2 5776   6.729   4.590   2.197
 1792WAT      O 5777   6.975   5.391   3.513
 1792WAT     H1 5778   7.000   5.392   3.421
 1792WAT     H2 5779   6.938   5.304   3.528
 1793WAT      O 5780   5.960   4.123   0.290
 1793WAT     H1 5781   5.887   4.129   0.228
 1793WAT     H2 5782   6.037   4.111   0.235
 1794WAT      O 5783   5.565   2.324   2.312
 1794WAT     H1 5784   5.571   2.235   2.347
 1794WAT     H2 5785   5.583   2.315   2.218
 1795WAT      O 5786   4.198   5.584   5.024
 1795WAT     H1 5787   4.232   5.528   5.094
 1795WAT     H2 5788   4.111   5.610   5.054
 1796WAT      O 5789   0.330   4.898   5.918
 1796WAT     H1 5790   0.302   4.931   5.833
 1796WAT     H2 5791   0.250   4.867   5.960
 1797WAT      O 5792   5.758   6.473   6.117
 1797WAT     H1 5793   5.844   6.513   6.122
 1797WAT     H2 5794   5.774   6.385   6.084
 1798WAT      O 5795   1.143   1.258   1.704
 1798WAT     H1 5796   1.177   1.283   1.618
 1798WAT     H2 5797   1.147   1.162   1.704
 1799WAT      O 5798   7.435   0.398   1.994
 1799WAT     H1 5799   7.444   0.484   1.952
 1799WAT     H2 5800   7.461   0.335   1.926
 1800WAT      O 5801   1.105   6.380   2.837
 1800WAT     H1 5802   1.118   6.311   2.772
 1800WAT     H2 5803   1.016   6.411   2.820
 1801WAT      O 5804   5.718   0.386   5.249
 1801WAT     H1 5805   5.801   0.343   5.268
 1801WAT     H2 5806   5.678   0.333   5.179
 1802WAT      O 5807   4.026   6.602   0.423
 1802WAT     H1 5808   3.956   6.652   0.465
 1802WAT     H2 5809   4.103   6.658   0.430
 1803WAT      O 5810   0.177   1.694   1.007
 1803WAT     H1 5811   0.095   1.670   1.049
 1803WAT     H2 5812   0.239   1.706   1.079
 1804WAT      O 5813   4.417   4.612   1.409
 1804WAT     H1 5814   4.430   4.707   1.407
 1804WAT     H2 5815   4.323   4.600   1.402
 1805WAT      O 5816   0.048   2.234   5.483
 1805WAT     H1 5817   0.027   2.311   5.430
 1805WAT     H2 5818  -0.020   2.233   5.550
 1806WAT      O 5819   6.075   5.894   4.777
 1806WAT     H1 5820   6.112   5.930   4.697
 1806WAT     H2 5821   6.108   5.804   4.780
 1807WAT      O 5822   2.042   6.332   3.828
 1807WAT     H1 5823   2.006   6.359   3.912
 1807WAT     H2 5824   1.972   6.283   3.786
 1808WAT      O 5825   4.119   4.170   5.983
 1808WAT     H1 5826   4.164   4.242   6.028
 1808WAT     H2 5827   4.028   4.199   5.977
 1809WAT      O 5828   2.593   2.504   5.977
 1809WAT     H1 5829   2.551   2.488   5.892
 1809WAT     H2 5830   2.683   2.528   5.955
 1810WAT      O 5831   7.142   3.400   1.103
 1810WAT     H1 5832   7.168   3.331   1.042
 1810WAT     H2 5833   7.052   3.379   1.127
 1811WAT      O 5834   6.886   3.899   4.842
 1811WAT     H1 5835   6.876   3.964   4.772
 1811WAT     H2 5836   6.873   3.815   4.799
 1812WAT      O 5837   3.675   1.559   2.479
 1812WAT     H1 5838   3.768   1.575   2.464
 1812WAT     H2 5839   3.632   1.598   2.403
 1813WAT      O 5840   4.096   0.289   3.592
 1813WAT     H1 5841   4.001   0.291   3.605
 1813WAT     H2 5842   4.117   0.378   3.564
 1814WAT      O 5843   4.870   0.113   0.445
 1814WAT     H1 5844   4.894   0.064   0.367
 1814WAT     H2 5845   4.953   0.135   0.487
 1815WAT      O 5846   5.478   1.099   3.088
 1815WAT     H1 5847   5.553   1.124   3.034
 1815WAT     H2 5848   5.423   1.177   3.090
 1816WAT      O 5849   6.638   1.156   1.545
 1816WAT     H1 5850   6.704   1.107   1.593
 1816WAT     H2 5851   6.670   1.156   1.454
 1817WAT      O 5852   6.690   6.227   4.890
 1817WAT     H1 5853   6.617   6.269   4.935
 1817WAT     H2 5854   6.684   6.135   4.917
 1818WAT      O 5855   7.252   5.868   5.884
 1818WAT     H1 5856   7.274   5.959   5.864
 1818WAT     H2 5857   7.167   5.873   5.927
 1819WAT      O 5858   6.394   3.966   5.765
 1819WAT     H1 5859   6.381   3.998   5.855
 1819WAT     H2 5860   6.310   3.979   5.723
 1820WAT      O 5861   3.391   3.753   5.916
 1820WAT     H1 5862   3.478   3.724   5.942
 1820WAT     H2 5863   3.401   3.847   5.897
 1821WAT      O 5864   0.322   1.698   1.244
 1821WAT     H1 5865   0.411   1.678   1.212
 1821WAT     H2 5866   0.321   1.666   1.334
 1822WAT      O 5867   4.789   4.093   3.034
 1822WAT     H1 5868   4.720   4.159   3.023
 1822WAT     H2 5869   4.766   4.025   2.970
 1823WAT      O 5870   1.627   7.142   0.008
 1823WAT     H1 5871   1.551   7.197   0.025
 1823WAT     H2 5872   1.603   7.056   0.044
 1824WAT      O 5873   5.363   0.914   4.830
 1824WAT     H1 5874   5.338   0.923   4.738
 1824WAT     H2 5875   5.322   0.990   4.873
 1825WAT      O 5876   3.365   1.936   5.031
 1825WAT     H1 5877   3.306   1.886   4.975
 1825WAT     H2 5878   3.436   1.962   4.973
 1826WAT      O 5879   3.472   6.560   5.514
 1826WAT     H1 5880   3.541   6.551   5.448
 1826WAT     H2 5881   3.448   6.471   5.537
 1827WAT      O 5882   6.957   6.326   4.833
 1827WAT     H1 5883   6.883   6.265   4.834
 1827WAT     H2 5884   6.969   6.348   4.741
 1828WAT      O 5885   2.242   4.283   2.235
 1828WAT     H1 5886   2.189   4.204   2.239
 1828WAT     H2 5887   2.182   4.349   2.199
 1829WAT      O 5888   4.934   0.895   2.515
 1829WAT     H1 5889   4.993   0.922   2.444
 1829WAT     H2 5890   4.866   0.845   2.472
 1830WAT      O 5891   5.751   1.647   2.559
 1830WAT     H1 5892   5.671   1.699   2.562
 1830WAT     H2 5893   5.815   1.696   2.611
 1831WAT      O 5894   2.502   2.199   5.553
 1831WAT     H1 5895   2.449   2.120   5.549
 1831WAT     H2 5896   2.466   2.256   5.486
 1832WAT      O 5897   4.589   4.718   3.130
 1832WAT     H1 5898   4.559   4.664   3.056
 1832WAT     H2 5899   4.527   4.791   3.133
 1833WAT      O 5900   3.708   1.299   4.749
 1833WAT     H1 5901   3.666   1.258   4.673
 1833WAT     H2 5902   3.746   1.380   4.715
 1834WAT      O 5903   3.920   4.405   1.463
 1834WAT     H1 5904   3.923   4.366   1.376
 1834WAT     H2 5905   3.830   4.436   1.473
 1835WAT      O 5906   0.960   2.101   1.930
 1835WAT     H1 5907   0.945   2.175   1.872
 1835WAT     H2 5908   0.881   2.047   1.921
 1836WAT      O 5909   0.273   5.852   4.733
 1836WAT     H1 5910   0.196   5.856   4.676
 1836WAT     H2 5911   0.264   5.926   4.792
 1837WAT      O 5912   3.473   0.287   3.721
 1837WAT     H1 5913   3.520   0.206   3.740
 1837WAT     H2 5914   3.525   0.329   3.652
 1838WAT      O 5915   2.171   4.389   0.832
 1838WAT     H1 5916   2.200   4.434   0.752
 1838WAT     H2 5917   2.076   4.383   0.822
 1839WAT      O 5918   5.235   3.348   2.301
 1839WAT     H1 5919   5.288   3.390   2.232
 1839WAT     H2 5920   5.298   3.330   2.371
 1840WAT      O 5921   5.582   3.508   4.149
 1840WAT     H1 5922   5.554   3.418   4.131
 1840WAT     H2 5923   5.501   3.555   4.168
 1841WAT      O 5924   7.609   3.545   2.117
 1841WAT     H1 5925   7.653   3.464   2.093
 1841WAT     H2 5926   7.517   3.522   2.122
 1842WAT      O 5927   6.802   5.147   5.200
 1842WAT     H1 5928   6.805   5.065   5.151
 1842WAT     H2 5929   6.892   5.158   5.232
 1843WAT      O 5930   0.959   4.909   3.751
 1843WAT     H1 5931   1.008   4.841   3.797
 1843WAT     H2 5932   1.024   4.951   3.694
 1844WAT      O 5933   5.840   0.254   6.062
 1844WAT     H1 5934   5.802   0.178   6.019
 1844WAT     H2 5935   5.795   0.260   6.146
 1845WAT      O 5936   5.928   0.525   2.650
 1845WAT     H1 5937   5.959   0.568   2.570
 1845WAT     H2 5938   5.850   0.477   2.622
 1846WAT      O 5939   7.044   6.525   2.446
 1846WAT     H1 5940   7.122   6.469   2.448
 1846WAT     H2 5941   6.974   6.467   2.415
 1847WAT      O 5942   5.327   3.705   5.697
 1847WAT     H1 5943   5.319   3.641   5.768
 1847WAT     H2 5944   5.270   3.670   5.628
 1848WAT      O 5945   6.097   6.396   1.769
 1848WAT     H1 5946   6.164   6.367   1.831
 1848WAT     H2 5947   6.098   6.329   1.700
 1849WAT      O 5948   5.298   3.400   2.801
 1849WAT     H1 5949   5.226   3.459   2.823
 1849WAT     H2 5950   5.255   3.317   2.780
 1850WAT      O 5951   1.885   0.535   1.719
 1850WAT     H1 5952   1.971   0.542   1.678
 1850WAT     H2 5953   1.873   0.618   1.766
 1851WAT      O 5954   7.477   4.023   1.793
 1851WAT     H1 5955   7.383   4.012   1.781
 1851WAT     H2 5956   7.516   3.986   1.715
 1852WAT      O 5957   6.093   7.063   4.619
 1852WAT     H1 5958   6.060   7.011   4.691
 1852WAT     H2 5959   6.050   7.027   4.541
 1853WAT      O 5960   1.791   1.581   3.696
 1853WAT     H1 5961   1.849   1.560   3.770
 1853WAT     H2 5962   1.703   1.567   3.730
 1854WAT      O 5963   6.734   3.775   0.610
 1854WAT     H1 5964   6.647   3.812   0.626
 1854WAT     H2 5965   6.793   3.833   0.657
 1855WAT      O 5966   4.269   3.468   0.435
 1855WAT     H1 5967   4.259   3.411   0.359
 1855WAT     H2 5968   4.351   3.439   0.476
 1856WAT      O 5969   4.493   6.002   4.437
 1856WAT     H1 5970   4.402   6.007   4.407
 1856WAT     H2 5971   4.544   5.992   4.356
 1857WAT      O 5972   0.139   1.198   5.424
 1857WAT     H1 5973   0.193   1.199   5.345
 1857WAT     H2 5974   0.108   1.108   5.431
 1858WAT      O 5975   5.887   0.760   5.153
 1858WAT     H1 5976   5.894   0.802   5.238
 1858WAT     H2 5977   5.978   0.749   5.123
 1859WAT      O 5978   0.601   4.821   1.922
 1859WAT     H1 5979   0.512   4.832   1.955
 1859WAT     H2 5980   0.597   4.742   1.868
 1860WAT      O 5981   5.093   6.561   5.856
 1860WAT     H1 5982   5.052   6.514   5.928
 1860WAT     H2 5983   5.036   6.637   5.841
 1861WAT      O 5984   1.223   4.291   4.329
 1861WAT     H1 5985   1.210   4.377   4.369
 1861WAT     H2 5986   1.148   4.282   4.270
 1862WAT      O 5987   1.257   6.933   3.737
 1862WAT     H1 5988   1.345   6.920   3.771
 1862WAT     H2 5989   1.270   6.963   3.647
 1863WAT      O 5990   2.552   2.550   5.054
 1863WAT     H1 5991   2.544   2.641   5.024
 1863WAT     H2 5992   2.567   2.558   5.148
 1864WAT      O 5993   1.686   2.914   6.130
 1864WAT     H1 5994   1.606   2.888   6.086
 1864WAT     H2 5995   1.730   2.972   6.068
 1865WAT      O 5996   0.074   5.286   4.022
 1865WAT     H1 5997   0.045   5.298   3.931
 1865WAT     H2 5998  -0.003   5.253   4.067
 1866WAT      O 5999   3.381   3.392   5.769
 1866WAT     H1 6000   3.395   3.462   5.706
 1866WAT     H2 6001   3.458   3.335   5.758
 1867WAT      O 6002   4.326   1.969   4.288
 1867WAT     H1 6003   4.274   2.036   4.332
 1867WAT     H2 6004   4.328   1.996   4.196
 1868WAT      O 6005   4.607   1.685   3.556
 1868WAT     H1 6006   4.597   1.780   3.545
 1868WAT     H2 6007   4.550   1.647   3.489
 1869WAT      O 6008   6.016   5.049   2.463
 1869WAT     H1 6009   5.922   5.053   2.444
 1869WAT     H2 6010   6.048   5.138   2.449
 1870WAT      O 6011   4.101   5.725   1.676
 1870WAT     H1 6012   4.165   5.657   1.697
 1870WAT     H2 6013   4.122   5.797   1.735
 1871WAT      O 6014   6.263   1.064   5.920
 1871WAT     H1 6015   6.243   1.147   5.964
 1871WAT     H2 6016   6.355   1.047   5.942
 1872WAT      O 6017   6.389   4.041   2.583
 1872WAT     H1 6018   6.401   3.946   2.589
 1872WAT     H2 6019   6.414   4.062   2.493
 1873WAT      O 6020   2.874   6.765   1.390
 1873WAT     H1 6021   2.827   6.807   1.319
 1873WAT     H2 6022   2.859   6.823   1.466
 1874WAT      O 6023   6.530   2.665   1.062
 1874WAT     H1 6024   6.557   2.602   0.995
 1874WAT     H2 6025   6.474   2.615   1.120
 1875WAT      O 6026   2.703   6.590   3.155
 1875WAT     H1 6027   2.633   6.656   3.159
 1875WAT     H2 6028   2.762   6.622   3.088
 1876WAT      O 6029   2.350   5.722   0.470
 1876WAT     H1 6030   2.374   5.763   0.386
 1876WAT     H2 6031   2.256   5.706   0.461
 1877WAT      O 6032   0.188   2.768   0.521
 1877WAT     H1 6033   0.248   2.778   0.447
 1877WAT     H2 6034   0.119   2.833   0.505
 1878WAT      O 6035   5.473   5.845   3.012
 1878WAT     H1 6036   5.417   5.900   3.067
 1878WAT     H2 6037   5.488   5.897   2.933
 1879WAT      O 6038   0.782   4.365   1.660
 1879WAT     H1 6039   0.843   4.432   1.689
 1879WAT     H2 6040   0.835   4.286   1.652
 1880WAT      O 6041   1.450   1.751   1.059
 1880WAT     H1 6042   1.524   1.739   1.000
 1880WAT     H2 6043   1.412   1.664   1.067
 1881WAT      O 6044   3.648   2.381   5.444
 1881WAT     H1 6045   3.646   2.377   5.348
 1881WAT     H2 6046   3.741   2.391   5.465
 1882WAT      O 6047   2.223   3.112   6.101
 1882WAT     H1 6048   2.171   3.049   6.152
 1882WAT     H2 6049   2.249   3.064   6.023
 1883WAT      O 6050   1.748   1.658   4.452
 1883WAT     H1 6051   1.725   1.575   4.493
 1883WAT     H2 6052   1.674   1.678   4.394
 1884WAT      O 6053   4.071   6.408   5.598
 1884WAT     H1 6054   4.051   6.315   5.613
 1884WAT     H2 6055   4.129   6.409   5.522
 1885WAT      O 6056   5.648   0.706   1.579
 1885WAT     H1 6057   5.674   0.761   1.505
 1885WAT     H2 6058   5.719   0.716   1.643
 1886WAT      O 6059   7.154   0.343   1.863
 1886WAT     H1 6060   7.093   0.415   1.877
 1886WAT     H2 6061   7.238   0.376   1.897
 1887WAT      O 6062   4.524   6.739   2.990
 1887WAT     H1 6063   4.533   6.786   2.907
 1887WAT     H2 6064   4.608   6.750   3.033
 1888WAT      O 6065   3.821   6.380   1.216
 1888WAT     H1 6066   3.792   6.351   1.129
 1888WAT     H2 6067   3.744   6.368   1.272
 1889WAT      O 6068   0.563   1.840   0.799
 1889WAT     H1 6069   0.579   1.802   0.713
 1889WAT     H2 6070   0.636   1.810   0.853
 1890WAT      O 6071   0.148   3.289   5.076
 1890WAT     H1 6072   0.130   3.205   5.118
 1890WAT     H2 6073   0.231   3.317   5.114
 1891WAT      O 6074   5.301   6.975   2.794
 1891WAT     H1 6075   5.272   7.062   2.820
 1891WAT     H2 6076   5.265   6.962   2.706
 1892WAT      O 6077   4.494   2.981   5.778
 1892WAT     H1 6078   4.461   2.895   5.803
 1892WAT     H2 6079   4.455   2.999   5.693
 1893WAT      O 6080   0.092   0.427   1.187
 1893WAT     H1 6081   0.171   0.473   1.214
 1893WAT     H2 6082   0.071   0.463   1.101
 1894WAT      O 6083   2.635   3.416   2.254
 1894WAT     H1 6084   2.556   3.445   2.208
 1894WAT     H2 6085   2.694   3.388   2.185
 1895WAT      O 6086   6.351   5.758   0.624
 1895WAT     H1 6087   6.436   5.752   0.667
 1895WAT     H2 6088   6.336   5.671   0.589
 1896WAT      O 6089   7.287   0.922   5.953
 1896WAT     H1 6090   7.245   0.841   5.924
 1896WAT     H2 6091   7.277   0.982   5.879
 1897WAT      O 6092   3.433   3.866   1.720
 1897WAT     H1 6093   3.418   3.929   1.651
 1897WAT     H2 6094   3.527   3.873   1.739
 1898WAT      O 6095   7.488   0.870   0.962
 1898WAT     H1 6096   7.514   0.908   0.878
 1898WAT     H2 6097   7.393   0.877   0.963
 1899WAT      O 6098   2.012   5.782   5.893
 1899WAT     H1 6099   2.013   5.689   5.872
 1899WAT     H2 6100   2.017   5.826   5.808
 1900WAT      O 6101   4.340   5.981   0.898
 1900WAT     H1 6102   4.296   6.003   0.816
 1900WAT     H2 6103   4.427   5.952   0.871
 1901WAT      O 6104   1.175   3.259   1.157
 1901WAT     H1 6105   1.091   3.299   1.178
 1901WAT     H2 6106   1.211   3.315   1.088
 1902WAT      O 6107   6.659   0.839   5.640
 1902WAT     H1 6108   6.614   0.780   5.580
 1902WAT     H2 6109   6.610   0.921   5.633
 1903WAT      O 6110   2.424   3.962   2.231
 1903WAT     H1 6111   2.450   4.051   2.207
 1903WAT     H2 6112   2.468   3.946   2.315
 1904WAT      O 6113   5.028   4.275   5.312
 1904WAT     H1 6114   4.996   4.200   5.362
 1904WAT     H2 6115   4.984   4.350   5.351
 1905WAT      O 6116   3.645   4.837   0.170
 1905WAT     H1 6117   3.560   4.844   0.215
 1905WAT     H2 6118   3.660   4.924   0.134
 1906WAT      O 6119   0.922   0.556   5.254
 1906WAT     H1 6120   0.932   0.546   5.160
 1906WAT     H2 6121   0.867   0.634   5.264
 1907WAT      O 6122   4.400   1.990   2.406
 1907WAT     H1 6123   4.482   1.997   2.357
 1907WAT     H2 6124   4.332   1.991   2.338
 1908WAT      O 6125   0.226   1.513   5.407
 1908WAT     H1 6126   0.190   1.510   5.318
 1908WAT     H2 6127   0.176   1.446   5.454
 1909WAT      O 6128   5.184   6.171   5.984
 1909WAT     H1 6129   5.116   6.105   5.995
 1909WAT     H2 6130   5.151   6.229   5.916
 1910WAT      O 6131   0.843   6.644   4.761
 1910WAT     H1 6132   0.777   6.595   4.712
 1910WAT     H2 6133   0.869   6.585   4.832
 1911WAT      O 6134   3.244   4.107   4.942
 1911WAT     H1 6135   3.174   4.157   4.901
 1911WAT     H2 6136   3.269   4.159   5.018
 1912WAT      O 6137   5.109   2.410   4.182
 1912WAT     H1 6138   5.142   2.425   4.270
 1912WAT     H2 6139   5.187   2.414   4.126
 1913WAT      O 6140   6.684   4.946   0.373
 1913WAT     H1 6141   6.612   5.008   0.359
 1913WAT     H2 6142   6.691   4.939   0.468
 1914WAT      O 6143   3.605   3.238   5.711
 1914WAT     H1 6144   3.646   3.185   5.643
 1914WAT     H2 6145   3.598   3.179   5.786
 1915WAT      O 6146   5.144   5.699   5.655
 1915WAT     H1 6147   5.120   5.700   5.562
 1915WAT     H2 6148   5.082   5.757   5.697
 1916WAT      O 6149   5.428   1.613   2.908
 1916WAT     H1 6150   5.452   1.703   2.884
 1916WAT     H2 6151   5.369   1.624   2.983
 1917WAT      O 6152   1.787   6.164   6.102
 1917WAT     H1 6153   1.778   6.174   6.007
 1917WAT     H2 6154   1.877   6.134   6.115
 1918WAT      O 6155   1.326   0.308   3.358
 1918WAT     H1 6156   1.354   0.277   3.444
 1918WAT     H2 6157   1.317   0.228   3.305
 1919WAT      O 6158   0.482   5.656   3.034
 1919WAT     H1 6159   0.509   5.583   2.979
 1919WAT     H2 6160   0.532   5.645   3.115
 1920WAT      O 6161   6.324   7.123   5.638
 1920WAT     H1 6162   6.404   7.097   5.594
 1920WAT     H2 6163   6.300   7.206   5.597
 1921WAT      O 6164   2.821   2.173   3.544
 1921WAT     H1 6165   2.761   2.152   3.472
 1921WAT     H2 6166   2.896   2.214   3.502
 1922WAT      O 6167   6.712   1.704   0.793
 1922WAT     H1 6168   6.710   1.800   0.786
 1922WAT     H2 6169   6.623   1.676   0.773
 1923WAT      O 6170   6.364   0.540   3.981
 1923WAT     H1 6171   6.349   0.447   3.968
 1923WAT     H2 6172   6.279   0.581   3.964
 1924WAT      O 6173   4.773   3.900   0.212
 1924WAT     H1 6174   4.725   3.857   0.142
 1924WAT     H2 6175   4.755   3.993   0.200
 1925WAT      O 6176   7.514   4.414   4.897
 1925WAT     H1 6177   7.506   4.333   4.846
 1925WAT     H2 6178   7.505   4.484   4.832
 1926WAT      O 6179   3.087   4.926   4.769
 1926WAT     H1 6180   3.066   4.878   4.849
 1926WAT     H2 6181   3.004   4.932   4.721
 1927WAT      O 6182   5.376   5.681   5.793
 1927WAT     H1 6183   5.301   5.696   5.736
 1927WAT     H2 6184   5.339   5.665   5.879
 1928WAT      O 6185   6.625   6.848   4.428
 1928WAT     H1 6186   6.674   6.767   4.433
 1928WAT     H2 6187   6.596   6.854   4.337
 1929WAT      O 6188   4.379   2.241   2.247
 1929WAT     H1 6189   4.416   2.240   2.335
 1929WAT     H2 6190   4.452   2.268   2.191
 1930WAT      O 6191   2.953   5.103   3.308
 1930WAT     H1 6192   3.033   5.054   3.288
 1930WAT     H2 6193   2.883   5.053   3.267
 1931WAT      O 6194   5.523   6.851   1.662
 1931WAT     H1 6195   5.480   6.802   1.732
 1931WAT     H2 6196   5.469   6.837   1.585
 1932WAT      O 6197   2.369   3.013   5.474
 1932WAT     H1 6198   2.415   3.045   5.396
 1932WAT     H2 6199   2.438   2.976   5.529
 1933WAT      O 6200   6.793   5.225   2.579
 1933WAT     H1 6201   6.776   5.252   2.489
 1933WAT     H2 6202   6.732   5.277   2.632
 1934WAT      O 6203   3.547   1.141   1.918
 1934WAT     H1 6204   3.624   1.191   1.892
 1934WAT     H2 6205   3.494   1.135   1.838
 1935WAT      O 6206   3.197   1.063   3.451
 1935WAT     H1 6207   3.236   0.999   3.509
 1935WAT     H2 6208   3.103   1.058   3.468
 1936WAT      O 6209   1.310   2.408   1.542
 1936WAT     H1 6210   1.218   2.393   1.566
 1936WAT     H2 6211   1.314   2.385   1.449
 1937WAT      O 6212   2.406   5.524   0.641
 1937WAT     H1 6213   2.364   5.583   0.579
 1937WAT     H2 6214   2.429   5.580   0.716
 1938WAT      O 6215   3.757   0.580   0.049
 1938WAT     H1 6216   3.668   0.546   0.057
 1938WAT     H2 6217   3.813   0.511   0.084
 1939WAT      O 6218   0.191   3.187   5.517
 1939WAT     H1 6219   0.169   3.159   5.606
 1939WAT     H2 6220   0.283   3.211   5.522
 1940WAT      O 6221   1.676   6.547   0.778
 1940WAT     H1 6222   1.654   6.588   0.862
 1940WAT     H2 6223   1.678   6.619   0.715
 1941WAT      O 6224   3.980   6.584   1.106
 1941WAT     H1 6225   3.993   6.558   1.015
 1941WAT     H2 6226   3.929   6.512   1.144
 1942WAT      O 6227   0.381   6.993   2.413
 1942WAT     H1 6228   0.287   6.981   2.426
 1942WAT     H2 6229   0.389   7.079   2.370
 1943WAT      O 6230   7.005   6.787   4.211
 1943WAT     H1 6231   6.916   6.762   4.187
 1943WAT     H2 6232   7.061   6.735   4.153
 1944WAT      O 6233   3.320   5.520   5.090
 1944WAT     H1 6234   3.353   5.443   5.136
 1944WAT     H2 6235   3.333   5.499   4.997
 1945WAT      O 6236   0.541   5.493   0.172
 1945WAT     H1 6237   0.570   5.406   0.145
 1945WAT     H2 6238   0.485   5.523   0.100
 1946WAT      O 6239   1.461   5.724   1.871
 1946WAT     H1 6240   1.389   5.670   1.905
 1946WAT     H2 6241   1.535   5.665   1.865
 1947WAT      O 6242   6.410   4.687   0.690
 1947WAT     H1 6243   6.375   4.678   0.602
 1947WAT     H2 6244   6.479   4.753   0.682
 1948WAT      O 6245   6.086   3.833   3.123
 1948WAT     H1 6246   6.180   3.851   3.132
 1948WAT     H2 6247   6.049   3.916   3.094
 1949WAT      O 6248   4.610   2.481   4.987
 1949WAT     H1 6249   4.590   2.549   4.924
 1949WAT     H2 6250   4.580   2.515   5.071
 1950WAT      O 6251   6.761   0.150   1.449
 1950WAT     H1 6252   6.836   0.139   1.390
 1950WAT     H2 6253   6.689   0.174   1.392
 1951WAT      O 6254   3.311   3.999   1.139
 1951WAT     H1 6255   3.320   3.904   1.151
 1951WAT     H2 6256   3.402   4.030   1.137
 1952WAT      O 6257   6.857   2.578   0.449
 1952WAT     H1 6258   6.845   2.659   0.500
 1952WAT     H2 6259   6.836   2.603   0.359
 1953WAT      O 6260   2.288   3.277   5.530
 1953WAT     H1 6261   2.334   3.233   5.458
 1953WAT     H2 6262   2.220   3.214   5.556
 1954WAT      O 6263   7.101   5.736   2.228
 1954WAT     H1 6264   7.006   5.729   2.223
 1954WAT     H2 6265   7.132   5.645   2.230
 1955WAT      O 6266   6.149   0.030   4.554
 1955WAT     H1 6267   6.217   0.048   4.488
 1955WAT     H2 6268   6.067   0.051   4.510
 1956WAT      O 6269   6.410   3.712   0.577
 1956WAT     H1 6270   6.366   3.666   0.649
 1956WAT     H2 6271   6.392   3.804   0.594
 1957WAT      O 6272   0.326   0.564   0.718
 1957WAT     H1 6273   0.403   0.512   0.737
 1957WAT     H2 6274   0.321   0.566   0.622
 1958WAT      O 6275   4.777   3.440   4.820
 1958WAT     H1 6276   4.809   3.496   4.748
 1958WAT     H2 6277   4.746   3.361   4.776
 1959WAT      O 6278   5.116   1.134   0.240
 1959WAT     H1 6279   5.069   1.056   0.270
 1959WAT     H2 6280   5.058   1.207   0.261
 1960WAT      O 6281   0.385   5.778   4.998
 1960WAT     H1 6282   0.360   5.870   5.001
 1960WAT     H2 6283   0.352   5.747   4.913
 1961WAT      O 6284   1.588   6.302   3.806
 1961WAT     H1 6285   1.634   6.348   3.736
 1961WAT     H2 6286   1.497   6.333   3.800
 1962WAT      O 6287   3.524   2.349   3.422
 1962WAT     H1 6288   3.528   2.444   3.409
 1962WAT     H2 6289   3.577   2.313   3.351
 1963WAT      O 6290   6.060   4.546   3.941
 1963WAT     H1 6291   6.026   4.493   4.012
 1963WAT     H2 6292   6.114   4.613   3.984
 1964WAT      O 6293   6.198   6.355   1.307
 1964WAT     H1 6294   6.169   6.310   1.387
 1964WAT     H2 6295   6.133   6.332   1.241
 1965WAT      O 6296   4.612   5.033   4.729
 1965WAT     H1 6297   4.686   4.995   4.777
 1965WAT     H2 6298   4.545   4.964   4.729
 1966WAT      O 6299   3.756   6.795   4.877
 1966WAT     H1 6300   3.826   6.813   4.940
 1966WAT     H2 6301   3.798   6.744   4.808
 1967WAT      O 6302   1.030   0.502   1.790
 1967WAT     H1 6303   0.987   0.438   1.848
 1967WAT     H2 6304   0.959   0.561   1.765
 1968WAT      O 6305   5.405   4.845   5.173
 1968WAT     H1 6306   5.346   4.917   5.149
 1968WAT     H2 6307   5.466   4.838   5.099
 1969WAT      O 6308   4.402   5.199   2.421
 1969WAT     H1 6309   4.374   5.225   2.333
 1969WAT     H2 6310   4.497   5.192   2.416
 1970WAT      O 6311   2.812   0.378   0.647
 1970WAT     H1 6312   2.860   0.302   0.681
 1970WAT     H2 6313   2.878   0.429   0.600
 1971WAT      O 6314   2.769   0.604   1.074
 1971WAT     H1 6315   2.705   0.572   1.137
 1971WAT     H2 6316   2.716   0.637   1.001
 1972WAT      O 6317   2.747   6.752   0.740
 1972WAT     H1 6318   2.730   6.808   0.665
 1972WAT     H2 6319   2.841   6.736   0.738
 1973WAT      O 6320   4.409   6.956   3.922
 1973WAT     H1 6321   4.370   6.902   3.854
 1973WAT     H2 6322   4.468   7.015   3.874
 1974WAT      O 6323   5.359   5.925   2.259
 1974WAT     H1 6324   5.327   5.836   2.247
 1974WAT     H2 6325   5.375   5.956   2.169
 1975WAT      O 6326   2.751   6.403   5.444
 1975WAT     H1 6327   2.771   6.361   5.528
 1975WAT     H2 6328   2.782   6.493   5.454
 1976WAT      O 6329   0.177   1.110   1.295
 1976WAT     H1 6330   0.146   1.044   1.358
 1976WAT     H2 6331   0.101   1.126   1.239
 1977WAT      O 6332   4.618   7.148   3.814
 1977WAT     H1 6333   4.664   7.073   3.776
 1977WAT     H2 6334   4.659   7.224   3.773
 1978WAT      O 6335   4.900   6.105   3.953
 1978WAT     H1 6336   4.893   6.182   3.896
 1978WAT     H2 6337   4.960   6.046   3.908
 1979WAT      O 6338   4.949   0.802   0.154
 1979WAT     H1 6339   4.950   0.858   0.231
 1979WAT     H2 6340   5.010   0.844   0.093
 1980WAT      O 6341   1.169   6.683   0.355
 1980WAT     H1 6342   1.106   6.649   0.291
 1980WAT     H2 6343   1.158   6.778   0.352
 1981WAT      O 6344   2.560   2.393   4.375
 1981WAT     H1 6345   2.640   2.435   4.406
 1981WAT     H2 6346   2.582   2.363   4.287
 1982WAT      O 6347   0.232   5.905   1.474
 1982WAT     H1 6348   0.316   5.914   1.520
 1982WAT     H2 6349   0.198   5.995   1.469
 1983WAT      O 6350   6.117   6.497   2.567
 1983WAT     H1 6351   6.075   6.525   2.486
 1983WAT     H2 6352   6.211   6.507   2.550
 1984WAT      O 6353   3.386   6.789   4.885
 1984WAT     H1 6354   3.377   6.788   4.789
 1984WAT     H2 6355   3.298   6.810   4.916
 1985WAT      O 6356   1.584   6.040   3.706
 1985WAT     H1 6357   1.549   6.048   3.618
 1985WAT     H2 6358   1.575   6.128   3.743
 1986WAT      O 6359   4.661   2.799   2.208
 1986WAT     H1 6360   4.697   2.886   2.189
 1986WAT     H2 6361   4.568   2.807   2.187
 1987WAT      O 6362   1.871   5.196   0.122
 1987WAT     H1 6363   1.839   5.233   0.040
 1987WAT     H2 6364   1.962   5.174   0.104
 1988WAT      O 6365   5.411   0.643   5.514
 1988WAT     H1 6366   5.442   0.554   5.497
 1988WAT     H2 6367   5.462   0.673   5.589
 1989WAT      O 6368   7.427   2.694   4.825
 1989WAT     H1 6369   7.399   2.781   4.854
 1989WAT     H2 6370   7.516   2.707   4.793
 1990WAT      O 6371   5.664   2.927   3.582
 1990WAT     H1 6372   5.708   2.938   3.498
 1990WAT     H2 6373   5.692   3.002   3.634
 1991WAT      O 6374   2.726   1.209   3.226
 1991WAT     H1 6375   2.751   1.301   3.229
 1991WAT     H2 6376   2.666   1.202   3.152
 1992WAT      O 6377   0.159   5.444   3.318
 1992WAT     H1 6378   0.152   5.442   3.222
 1992WAT     H2 6379   0.213   5.522   3.335
 1993WAT      O 6380   7.442   1.661   4.608
 1993WAT     H1 6381   7.418   1.741   4.655
 1993WAT     H2 6382   7.399   1.670   4.523
 1994WAT      O 6383   2.170   1.613   1.117
 1994WAT     H1 6384   2.229   1.553   1.162
 1994WAT     H2 6385   2.218   1.641   1.039
 1995WAT      O 6386   2.710   4.551   0.144
 1995WAT     H1 6387   2.792   4.502   0.145
 1995WAT     H2 6388   2.734   4.638   0.115
 1996WAT      O 6389   3.558   5.149   3.823
 1996WAT     H1 6390   3.626   5.123   3.886
 1996WAT     H2 6391   3.489   5.085   3.834
 1997WAT      O 6392   2.103   0.376   5.712
 1997WAT     H1 6393   2.047   0.435   5.662
 1997WAT     H2 6394   2.047   0.343   5.783
 1998WAT      O 6395   3.277   5.856   1.897
 1998WAT     H1 6396   3.244   5.866   1.807
 1998WAT     H2 6397   3.200   5.832   1.948
 1999WAT      O 6398   4.199   1.731   0.987
 1999WAT     H1 6399   4.251   1.744   0.907
 1999WAT     H2 6400   4.131   1.798   0.984
 2000WAT      O 6401   2.143   1.662   2.192
 2000WAT     H1 6402   2.184   1.611   2.122
 2000WAT     H2 6403   2.138   1.602   2.266
 2001WAT      O 6404   3.836   1.586   0.131
 2001WAT     H1 6405   3.770   1.632   0.183
 2001WAT     H2 6406   3.813   1.606   0.040
 2002WAT      O 6407   3.316   2.056   2.402
 2002WAT     H1 6408   3.298   1.991   2.334
 2002WAT     H2 6409   3.274   2.136   2.371
 2003WAT      O 6410   5.387   4.793   3.045
 2003WAT     H1 6411   5.345   4.834   2.970
 2003WAT     H2 6412   5.364   4.848   3.120
 2004WAT      O 6413   4.957   0.393   4.043
 2004WAT     H1 6414   4.943   0.455   4.114
 2004WAT     H2 6415   4.889   0.327   4.054
 2005WAT      O 6416   5.287   0.722   4.387
 2005WAT     H1 6417   5.274   0.667   4.310
 2005WAT     H2 6418   5.355   0.676   4.437
 2006WAT      O 6419   5.286   2.455   6.029
 2006WAT     H1 6420   5.291   2.536   5.977
 2006WAT     H2 6421   5.371   2.413   6.016
 2007WAT      O 6422   7.476   1.107   5.615
 2007WAT     H1 6423   7.511   1.178   5.668
 2007WAT     H2 6424   7.549   1.082   5.558
 2008WAT      O 6425   7.146   3.032   6.108
 2008WAT     H1 6426   7.080   3.052   6.041
 2008WAT     H2 6427   7.230   3.052   6.066
 2009WAT      O 6428   1.259   3.924   4.591
 2009WAT     H1 6429   1.301   3.838   4.582
 2009WAT     H2 6430   1.265   3.963   4.504
 2010WAT      O 6431   2.142   0.097   1.033
 2010WAT     H1 6432   2.093   0.151   1.095
 2010WAT     H2 6433   2.087   0.095   0.954
 2011WAT      O 6434   6.298   3.084   4.324
 2011WAT     H1 6435   6.304   3.069   4.230
 2011WAT     H2 6436   6.362   3.024   4.362
 2012WAT      O 6437   7.515   0.945   4.997
 2012WAT     H1 6438   7.555   1.032   4.993
 2012WAT     H2 6439   7.445   0.947   4.932
 2013WAT      O 6440   1.312   6.001   2.861
 2013WAT     H1 6441   1.348   6.036   2.943
 2013WAT     H2 6442   1.373   6.030   2.794
 2014WAT      O 6443   5.556   1.942   5.664
 2014WAT     H1 6444   5.629   1.880   5.669
 2014WAT     H2 6445   5.539   1.952   5.571
 2015WAT      O 6446   1.135   3.648   5.473
 2015WAT     H1 6447   1.195   3.574   5.474
 2015WAT     H2 6448   1.182   3.717   5.427
 2016WAT      O 6449   4.303   6.414   5.441
 2016WAT     H1 6450   4.383   6.448   5.481
 2016WAT     H2 6451   4.328   6.329   5.404
 2017WAT      O 6452   0.811   5.468   4.250
 2017WAT     H1 6453   0.793   5.464   4.156
 2017WAT     H2 6454   0.770   5.389   4.285
 2018WAT      O 6455   3.262   6.112   2.616
 2018WAT     H1 6456   3.222   6.137   2.533
 2018WAT     H2 6457   3.230   6.023   2.632
 2019WAT      O 6458   5.697   2.879   1.843
 2019WAT     H1 6459   5.603   2.885   1.859
 2019WAT     H2 6460   5.724   2.798   1.885
 2020WAT      O 6461   6.365   2.294   0.155
 2020WAT     H1 6462   6.460   2.297   0.168
 2020WAT     H2 6463   6.346   2.201   0.141
 2021WAT      O 6464   5.786   1.793   5.621
 2021WAT     H1 6465   5.857   1.841   5.579
 2021WAT     H2 6466   5.771   1.717   5.564
 2022WAT      O 6467   1.002   4.949   0.358
 2022WAT     H1 6468   1.009   4.976   0.267
 2022WAT     H2 6469   1.027   5.026   0.409
 2023WAT      O 6470   1.306   4.482   1.095
 2023WAT     H1 6471   1.385   4.497   1.146
 2023WAT     H2 6472   1.265   4.406   1.136
 2024WAT      O 6473   6.854   0.124   5.792
 2024WAT     H1 6474   6.850   0.073   5.873
 2024WAT     H2 6475   6.762   0.137   5.768
 2025WAT      O 6476   0.682   1.221   5.353
 2025WAT     H1 6477   0.639   1.306   5.360
 2025WAT     H2 6478   0.677   1.198   5.260
 2026WAT      O 6479   4.962   2.096   1.088
 2026WAT     H1 6480   5.047   2.097   1.132
 2026WAT     H2 6481   4.984   2.097   0.994
 2027WAT      O 6482   1.794   4.859   3.879
 2027WAT     H1 6483   1.721   4.810   3.842
 2027WAT     H2 6484   1.873   4.815   3.845
 2028WAT      O 6485   1.183   5.229   5.129
 2028WAT     H1 6486   1.237   5.264   5.059
 2028WAT     H2 6487   1.201   5.135   5.130
 2029WAT      O 6488   1.388   2.979   0.407
 2029WAT     H1 6489   1.416   2.926   0.482
 2029WAT     H2 6490   1.451   2.958   0.338
 2030WAT      O 6491   4.270   5.033   5.664
 2030WAT     H1 6492   4.228   5.014   5.580
 2030WAT     H2 6493   4.220   4.981   5.727
 2031WAT      O 6494   3.939   6.679   5.533
 2031WAT     H1 6495   3.957   6.602   5.587
 2031WAT     H2 6496   4.000   6.671   5.459
 2032WAT      O 6497   6.119   5.680   5.661
 2032WAT     H1 6498   6.071   5.750   5.705
 2032WAT     H2 6499   6.204   5.718   5.640
 2033WAT      O 6500   3.978   4.099   2.831
 2033WAT     H1 6501   4.027   4.181   2.829
 2033WAT     H2 6502   3.886   4.126   2.833
 2034WAT      O 6503   2.648   1.119   0.266
 2034WAT     H1 6504   2.604   1.183   0.210
 2034WAT     H2 6505   2.688   1.057   0.205
 2035WAT      O 6506   2.485   0.921   5.332
 2035WAT     H1 6507   2.456   0.991   5.273
 2035WAT     H2 6508   2.533   0.860   5.275
 2036WAT      O 6509   4.343   5.915   1.431
 2036WAT     H1 6510   4.319   5.838   1.381
 2036WAT     H2 6511   4.262   5.943   1.473
 2037WAT      O 6512   6.571   4.967   3.552
 2037WAT     H1 6513   6.591   4.931   3.638
 2037WAT     H2 6514   6.526   4.895   3.506
 2038WAT      O 6515   1.326   1.558   2.060
 2038WAT     H1 6516   1.327   1.474   2.106
 2038WAT     H2 6517   1.309   1.536   1.969
 2039WAT      O 6518   5.596   3.779   2.367
 2039WAT     H1 6519   5.654   3.814   2.299
 2039WAT     H2 6520   5.515   3.829   2.357
 2040WAT      O 6521   5.236   3.527   3.488
 2040WAT     H1 6522   5.280   3.610   3.471
 2040WAT     H2 6523   5.150   3.552   3.523
 2041WAT      O 6524   3.308   4.708   3.595
 2041WAT     H1 6525   3.346   4.658   3.523
 2041WAT     H2 6526   3.351   4.674   3.674
 2042WAT      O 6527   7.545   5.717   5.156
 2042WAT     H1 6528   7.549   5.643   5.217
 2042WAT     H2 6529   7.461   5.707   5.111
 2043WAT      O 6530   6.256   2.806   3.769
 2043WAT     H1 6531   6.185   2.819   3.706
 2043WAT     H2 6532   6.308   2.886   3.763
 2044WAT      O 6533   3.024   1.545   0.039
 2044WAT     H1 6534   3.038   1.639   0.029
 2044WAT     H2 6535   3.059   1.524   0.125
 2045WAT      O 6536   1.507   1.372   0.474
 2045WAT     H1 6537   1.457   1.319   0.412
 2045WAT     H2 6538   1.508   1.459   0.436
 2046WAT      O 6539   6.841   4.401   3.458
 2046WAT     H1 6540   6.781   4.462   3.415
 2046WAT     H2 6541   6.920   4.402   3.404
 2047WAT      O 6542   1.097   5.415   0.930
 2047WAT     H1 6543   1.036   5.449   0.865
 2047WAT     H2 6544   1.181   5.413   0.886
 2048WAT      O 6545   4.271   5.478   5.605
 2048WAT     H1 6546   4.315   5.557   5.635
 2048WAT     H2 6547   4.227   5.444   5.683
 2049WAT      O 6548   5.959   3.901   5.537
 2049WAT     H1 6549   5.874   3.890   5.495
 2049WAT     H2 6550   6.023   3.880   5.469
 2050WAT      O 6551   2.463   4.214   5.997
 2050WAT     H1 6552   2.429   4.163   5.924
 2050WAT     H2 6553   2.553   4.236   5.971
 2051WAT      O 6554   5.679   0.988   0.522
 2051WAT     H1 6555   5.648   0.927   0.455
 2051WAT     H2 6556   5.658   0.945   0.605
 2052WAT      O 6557   4.643   1.936   4.915
 2052WAT     H1 6558   4.628   2.025   4.882
 2052WAT     H2 6559   4.632   1.880   4.838
 2053WAT      O 6560   0.564   1.582   5.759
 2053WAT     H1 6561   0.632   1.521   5.789
 2053WAT     H2 6562   0.601   1.669   5.778
 2054WAT      O 6563   5.652   6.917   4.610
 2054WAT     H1 6564   5.609   6.851   4.665
 2054WAT     H2 6565   5.697   6.866   4.543
 2055WAT      O 6566   0.475   3.424   4.165
 2055WAT     H1 6567   0.448   3.476   4.240
 2055WAT     H2 6568   0.395   3.377   4.139
 2056WAT      O 6569   1.558   1.494   4.594
 2056WAT     H1 6570   1.492   1.535   4.537
 2056WAT     H2 6571   1.548   1.400   4.579
 2057WAT      O 6572   2.375   0.583   2.077
 2057WAT     H1 6573   2.358   0.496   2.042
 2057WAT     H2 6574   2.393   0.637   1.999
 2058WAT      O 6575   5.205   4.661   2.672
 2058WAT     H1 6576   5.246   4.648   2.757
 2058WAT     H2 6577   5.143   4.588   2.663
 2059WAT      O 6578   5.304   5.608   1.803
 2059WAT     H1 6579   5.297   5.512   1.795
 2059WAT     H2 6580   5.350   5.635   1.724
 2060WAT      O 6581   5.552   5.976   6.095
 2060WAT     H1 6582   5.587   6.059   6.126
 2060WAT     H2 6583   5.502   5.999   6.016
 2061WAT      O 6584   6.451   0.784   4.096
 2061WAT     H1 6585   6.441   0.705   4.042
 2061WAT     H2 6586   6.544   0.788   4.115
 2062WAT      O 6587   6.358   3.124   0.902
 2062WAT     H1 6588   6.364   3.216   0.878
 2062WAT     H2 6589   6.312   3.082   0.828
 2063WAT      O 6590   4.077   4.038   1.828
 2063WAT     H1 6591   4.148   4.097   1.853
 2063WAT     H2 6592   4.014   4.095   1.782
 2064WAT      O 6593   4.176   2.198   3.260
 2064WAT     H1 6594   4.243   2.186   3.193
 2064WAT     H2 6595   4.115   2.261   3.222
 2065WAT      O 6596   6.482   2.139   4.345
 2065WAT     H1 6597   6.433   2.174   4.420
 2065WAT     H2 6598   6.466   2.202   4.275
 2066WAT      O 6599   6.556   1.860   2.163
 2066WAT     H1 6600   6.559   1.794   2.093
 2066WAT     H2 6601   6.550   1.944   2.117
 2067WAT      O 6602   2.172   0.253   1.718
 2067WAT     H1 6603   2.104   0.189   1.740
 2067WAT     H2 6604   2.127   0.323   1.672
 2068WAT      O 6605   7.090   0.573   3.911
 2068WAT     H1 6606   7.006   0.594   3.950
 2068WAT     H2 6607   7.083   0.481   3.885
 2069WAT      O 6608   1.719   1.033   5.657
 2069WAT     H1 6609   1.714   0.950   5.609
 2069WAT     H2 6610   1.807   1.066   5.639
 2070WAT      O 6611   7.290   1.037   2.131
 2070WAT     H1 6612   7.280   1.093   2.208
 2070WAT     H2 6613   7.203   1.036   2.091
 2071WAT      O 6614   3.716   6.102   1.513
 2071WAT     H1 6615   3.681   6.192   1.511
 2071WAT     H2 6616   3.701   6.073   1.603
 2072WAT      O 6617   1.584   5.675   5.806
 2072WAT     H1 6618   1.573   5.716   5.720
 2072WAT     H2 6619   1.556   5.741   5.868
 2073WAT      O 6620   7.540   1.420   4.354
 2073WAT     H1 6621   7.515   1.508   4.329
 2073WAT     H2 6622   7.628   1.409   4.318
 2074WAT      O 6623   1.897   3.320   3.486
 2074WAT     H1 6624   1.831   3.262   3.522
 2074WAT     H2 6625   1.861   3.408   3.499
 2075WAT      O 6626   0.845   4.753   5.104
 2075WAT     H1 6627   0.904   4.815   5.147
 2075WAT     H2 6628   0.903   4.688   5.064
 2076WAT      O 6629   1.604   6.099   4.283
 2076WAT     H1 6630   1.668   6.065   4.221
 2076WAT     H2 6631   1.636   6.187   4.305
 2077WAT      O 6632   5.631   2.640   3.899
 2077WAT     H1 6633   5.536   2.649   3.909
 2077WAT     H2 6634   5.643   2.585   3.822
 2078WAT      O 6635   5.071   4.583   2.133
 2078WAT     H1 6636   5.040   4.626   2.053
 2078WAT     H2 6637   5.147   4.532   2.105
 2079WAT      O 6638   5.245   5.845   1.270
 2079WAT     H1 6639   5.273   5.817   1.182
 2079WAT     H2 6640   5.327   5.858   1.317
 2080WAT      O 6641   0.289   6.101   4.198
 2080WAT     H1 6642   0.356   6.149   4.150
 2080WAT     H2 6643   0.327   6.014   4.211
 2081WAT      O 6644   6.400   2.461   2.447
 2081WAT     H1 6645   6.311   2.496   2.454
 2081WAT     H2 6646   6.441   2.484   2.531
 2082WAT      O 6647   2.289   5.800   3.603
 2082WAT     H1 6648   2.247   5.853   3.671
 2082WAT     H2 6649   2.381   5.795   3.630
 2083WAT      O 6650   4.395   4.649   0.577
 2083WAT     H1 6651   4.339   4.577   0.546
 2083WAT     H2 6652   4.444   4.612   0.650
 2084WAT      O 6653   6.683   1.752   3.041
 2084WAT     H1 6654   6.671   1.760   3.135
 2084WAT     H2 6655   6.674   1.842   3.008
 2085WAT      O 6656   4.990   4.085   3.202
 2085WAT     H1 6657   4.989   4.148   3.274
 2085WAT     H2 6658   4.902   4.090   3.165
 2086WAT      O 6659   3.141   6.625   3.109
 2086WAT     H1 6660   3.107   6.626   3.019
 2086WAT     H2 6661   3.184   6.540   3.117
 2087WAT      O 6662   7.069   2.922   1.229
 2087WAT     H1 6663   7.028   2.948   1.146
 2087WAT     H2 6664   7.065   2.826   1.228
 2088WAT      O 6665   3.919   1.365   3.960
 2088WAT     H1 6666   3.991   1.356   3.897
 2088WAT     H2 6667   3.852   1.413   3.911
 2089WAT      O 6668   5.965   5.719   1.845
 2089WAT     H1 6669   5.876   5.711   1.810
 2089WAT     H2 6670   5.973   5.649   1.909
 2090WAT      O 6671   3.151   3.064   0.561
 2090WAT     H1 6672   3.115   3.120   0.493
 2090WAT     H2 6673   3.205   3.000   0.513
 2091WAT      O 6674   2.222   1.739   4.252
 2091WAT     H1 6675   2.307   1.695   4.252
 2091WAT     H2 6676   2.160   1.669   4.229
 2092WAT      O 6677   2.530   2.658   3.574
 2092WAT     H1 6678   2.527   2.700   3.659
 2092WAT     H2 6679   2.616   2.616   3.569
 2093WAT      O 6680   5.473   5.232   6.145
 2093WAT     H1 6681   5.511   5.296   6.085
 2093WAT     H2 6682   5.388   5.211   6.108
 2094WAT      O 6683   7.335   3.610   1.403
 2094WAT     H1 6684   7.421   3.626   1.362
 2094WAT     H2 6685   7.321   3.685   1.459
 2095WAT      O 6686   1.585   4.283   0.021
 2095WAT     H1 6687   1.635   4.211   0.060
 2095WAT     H2 6688   1.521   4.240  -0.035
 2096WAT      O 6689   3.563   4.487   5.608
 2096WAT     H1 6690   3.607   4.503   5.525
 2096WAT     H2 6691   3.629   4.504   5.675
 2097WAT      O 6692   0.065   0.416   2.277
 2097WAT     H1 6693   0.055   0.465   2.195
 2097WAT     H2 6694  -0.017   0.431   2.323
 2098WAT      O 6695   0.996   0.578   2.180
 2098WAT     H1 6696   1.085   0.582   2.216
 2098WAT     H2 6697   0.969   0.487   2.192
 2099WAT      O 6698   4.820   5.350   2.762
 2099WAT     H1 6699   4.866   5.330   2.680
 2099WAT     H2 6700   4.771   5.269   2.781
 2100WAT      O 6701   6.582   7.168   2.205
 2100WAT     H1 6702   6.558   7.110   2.133
 2100WAT     H2 6703   6.498   7.198   2.241
 2101WAT      O 6704   6.056   1.564   2.243
 2101WAT     H1 6705   5.991   1.633   2.233
 2101WAT     H2 6706   6.138   1.605   2.214
 2102WAT      O 6707   6.381   6.425   5.886
 2102WAT     H1 6708   6.401   6.490   5.953
 2102WAT     H2 6709   6.412   6.463   5.804
 2103WAT      O 6710   0.723   5.848   1.154
 2103WAT     H1 6711   0.780   5.917   1.190
 2103WAT     H2 6712   0.653   5.839   1.217
 2104WAT      O 6713   4.766   1.107   5.157
 2104WAT     H1 6714   4.846   1.123   5.107
 2104WAT     H2 6715   4.734   1.023   5.125
 2105WAT      O 6716   5.386   5.687   4.020
 2105WAT     H1 6717   5.312   5.657   4.073
 2105WAT     H2 6718   5.346   5.738   3.950
 2106WAT      O 6719   4.055   1.619   1.446
 2106WAT     H1 6720   4.111   1.697   1.445
 2106WAT     H2 6721   3.992   1.633   1.375
 2107WAT      O 6722   0.200   2.601   5.360
 2107WAT     H1 6723   0.198   2.631   5.269
 2107WAT     H2 6724   0.187   2.680   5.412
 2108WAT      O 6725   5.929   1.130   5.644
 2108WAT     H1 6726   6.006   1.172   5.606
 2108WAT     H2 6727   5.898   1.071   5.576
 2109WAT      O 6728   0.028   1.436   0.803
 2109WAT     H1 6729   0.062   1.526   0.798
 2109WAT     H2 6730   0.079   1.388   0.739
 2110WAT      O 6731   3.873   1.681   5.827
 2110WAT     H1 6732   3.861   1.772   5.798
 2110WAT     H2 6733   3.925   1.688   5.907
 2111WAT      O 6734   6.660   2.215   3.967
 2111WAT     H1 6735   6.743   2.168   3.956
 2111WAT     H2 6736   6.620   2.215   3.880
 2112WAT      O 6737   6.030   1.399   1.446
 2112WAT     H1 6738   6.034   1.350   1.365
 2112WAT     H2 6739   5.943   1.439   1.445
 2113WAT      O 6740   3.106   1.459   3.451
 2113WAT     H1 6741   3.141   1.377   3.486
 2113WAT     H2 6742   3.020   1.467   3.491
 2114WAT      O 6743   3.734   4.537   3.854
 2114WAT     H1 6744   3.677   4.560   3.780
 2114WAT     H2 6745   3.721   4.607   3.918
 2115WAT      O 6746   7.014   1.570   3.767
 2115WAT     H1 6747   7.049   1.481   3.757
 2115WAT     H2 6748   7.067   1.608   3.838
 2116WAT      O 6749   5.462   6.837   4.009
 2116WAT     H1 6750   5.509   6.754   4.008
 2116WAT     H2 6751   5.370   6.813   4.022
 2117WAT      O 6752   6.485   5.052   4.723
 2117WAT     H1 6753   6.546   5.110   4.676
 2117WAT     H2 6754   6.406   5.105   4.734
 2118WAT      O 6755   2.594   5.274   0.138
 2118WAT     H1 6756   2.543   5.260   0.218
 2118WAT     H2 6757   2.576   5.195   0.085
 2119WAT      O 6758   6.437   1.976   1.426
 2119WAT     H1 6759   6.493   1.914   1.379
 2119WAT     H2 6760   6.354   1.973   1.379
 2120WAT      O 6761   4.612   2.209   4.864
 2120WAT     H1 6762   4.562   2.272   4.916
 2120WAT     H2 6763   4.565   2.205   4.781
 2121WAT      O 6764   4.668   3.586   2.525
 2121WAT     H1 6765   4.667   3.499   2.485
 2121WAT     H2 6766   4.586   3.626   2.497
 2122WAT      O 6767   5.438   3.586   0.785
 2122WAT     H1 6768   5.356   3.564   0.741
 2122WAT     H2 6769   5.501   3.597   0.713
 2123WAT      O 6770   6.803   6.438   1.702
 2123WAT     H1 6771   6.887   6.480   1.716
 2123WAT     H2 6772   6.808   6.404   1.612
 2124WAT      O 6773   3.413   3.923   5.590
 2124WAT     H1 6774   3.469   3.999   5.607
 2124WAT     H2 6775   3.375   3.939   5.504
 2125WAT      O 6776   1.756   0.323   5.676
 2125WAT     H1 6777   1.718   0.266   5.609
 2125WAT     H2 6778   1.725   0.411   5.653
 2126WAT      O 6779   2.927   6.297   6.137
 2126WAT     H1 6780   2.846   6.330   6.099
 2126WAT     H2 6781   2.969   6.374   6.175
 2127WAT      O 6782   4.230   3.186   1.923
 2127WAT     H1 6783   4.198   3.274   1.906
 2127WAT     H2 6784   4.265   3.157   1.838
 2128WAT      O 6785   3.477   4.356   3.432
 2128WAT     H1 6786   3.456   4.443   3.399
 2128WAT     H2 6787   3.393   4.310   3.434
 2129WAT      O 6788   6.727   0.606   1.009
 2129WAT     H1 6789   6.819   0.628   0.998
 2129WAT     H2 6790   6.721   0.573   1.099
 2130WAT      O 6791   1.243   0.953   2.624
 2130WAT     H1 6792   1.206   1.023   2.678
 2130WAT     H2 6793   1.321   0.925   2.672
 2131WAT      O 6794   5.815   6.344   2.137
 2131WAT     H1 6795   5.869   6.417   2.110
 2131WAT     H2 6796   5.871   6.267   2.129
 2132WAT      O 6797   6.198   2.324   1.099
 2132WAT     H1 6798   6.117   2.334   1.049
 2132WAT     H2 6799   6.208   2.229   1.109
 2133WAT      O 6800   2.025   3.249   3.962
 2133WAT     H1 6801   1.968   3.176   3.937
 2133WAT     H2 6802   1.967   3.310   4.008
 2134WAT      O 6803   0.839   1.716   0.369
 2134WAT     H1 6804   0.843   1.646   0.304
 2134WAT     H2 6805   0.896   1.685   0.440
 2135WAT      O 6806   0.919   4.615   4.135
 2135WAT     H1 6807   1.003   4.606   4.090
 2135WAT     H2 6808   0.855   4.582   4.071
 2136WAT      O 6809   1.272   6.913   1.787
 2136WAT     H1 6810   1.323   6.925   1.708
 2136WAT     H2 6811   1.325   6.855   1.842
 2137WAT      O 6812   5.596   3.815   3.316
 2137WAT     H1 6813   5.572   3.785   3.228
 2137WAT     H2 6814   5.607   3.910   3.306
 2138WAT      O 6815   7.451   6.726   2.487
 2138WAT     H1 6816   7.374   6.756   2.439
 2138WAT     H2 6817   7.493   6.662   2.429
 2139WAT      O 6818   4.471   5.191   4.416
 2139WAT     H1 6819   4.472   5.284   4.436
 2139WAT     H2 6820   4.401   5.155   4.471
 2140WAT      O 6821   3.834   6.374   0.928
 2140WAT     H1 6822   3.927   6.352   0.919
 2140WAT     H2 6823   3.826   6.460   0.888
 2141WAT      O 6824   4.982   2.226   2.051
 2141WAT     H1 6825   4.923   2.174   1.996
 2141WAT     H2 6826   4.998   2.171   2.127
 2142WAT      O 6827   7.564   0.159   0.842
 2142WAT     H1 6828   7.584   0.187   0.932
 2142WAT     H2 6829   7.650   0.141   0.804
 2143WAT      O 6830   0.426   5.841   4.221
 2143WAT     H1 6831   0.414   5.816   4.313
 2143WAT     H2 6832   0.508   5.890   4.220
 2144WAT      O 6833   1.197   4.743   1.077
 2144WAT     H1 6834   1.268   4.801   1.053
 2144WAT     H2 6835   1.233   4.655   1.068
 2145WAT      O 6836   7.169   1.821   1.922
 2145WAT     H1 6837   7.241   1.770   1.886
 2145WAT     H2 6838   7.192   1.833   2.014
 2146WAT      O 6839   3.849   1.233   0.583
 2146WAT     H1 6840   3.942   1.235   0.560
 2146WAT     H2 6841   3.829   1.323   0.610
 2147WAT      O 6842   2.200   6.335   5.940
 2147WAT     H1 6843   2.263   6.327   5.869
 2147WAT     H2 6844   2.232   6.409   5.993
 2148WAT      O 6845   6.353   2.079   3.042
 2148WAT     H1 6846   6.333   2.169   3.068
 2148WAT     H2 6847   6.269   2.033   3.046
 2149WAT      O 6848   4.956   3.011   6.042
 2149WAT     H1 6849   4.977   3.094   6.084
 2149WAT     H2 6850   4.884   3.032   5.983
 2150WAT      O 6851   7.167   3.015   2.930
 2150WAT     H1 6852   7.090   3.060   2.965
 2150WAT     H2 6853   7.234   3.027   2.997
 2151WAT      O 6854   0.180   2.736   0.809
 2151WAT     H1 6855   0.210   2.761   0.721
 2151WAT     H2 6856   0.190   2.641   0.810
 2152WAT      O 6857   6.914   3.544   3.532
 2152WAT     H1 6858   6.933   3.453   3.507
 2152WAT     H2 6859   6.933   3.594   3.453
 2153WAT      O 6860   3.329   0.865   4.797
 2153WAT     H1 6861   3.260   0.932   4.790
 2153WAT     H2 6862   3.333   0.827   4.709
 2154WAT      O 6863   3.051   6.488   0.685
 2154WAT     H1 6864   2.993   6.454   0.617
 2154WAT     H2 6865   3.100   6.412   0.716
 2155WAT      O 6866   0.026   2.750   3.868
 2155WAT     H1 6867  -0.066   2.766   3.889
 2155WAT     H2 6868   0.024   2.687   3.797
 2156WAT      O 6869   0.215   1.747   5.086
 2156WAT     H1 6870   0.179   1.831   5.114
 2156WAT     H2 6871   0.236   1.759   4.994
 2157WAT      O 6872   4.065   0.602   1.545
 2157WAT     H1 6873   4.015   0.640   1.472
 2157WAT     H2 6874   4.157   0.619   1.522
 2158WAT      O 6875   6.434   5.111   6.154
 2158WAT     H1 6876   6.518   5.075   6.184
 2158WAT     H2 6877   6.411   5.057   6.078
 2159WAT      O 6878   6.849   6.171   2.705
 2159WAT     H1 6879   6.775   6.111   2.709
 2159WAT     H2 6880   6.911   6.129   2.646
 2160WAT      O 6881   2.599   5.261   5.987
 2160WAT     H1 6882   2.564   5.201   5.922
 2160WAT     H2 6883   2.544   5.339   5.979
 2161WAT      O 6884   4.242   0.522   3.813
 2161WAT     H1 6885   4.274   0.432   3.811
 2161WAT     H2 6886   4.310   0.570   3.860
 2162WAT      O 6887   4.286   5.991   5.398
 2162WAT     H1 6888   4.304   6.071   5.348
 2162WAT     H2 6889   4.320   5.920   5.343
 2163WAT      O 6890   5.110   3.184   5.539
 2163WAT     H1 6891   5.167   3.112   5.565
 2163WAT     H2 6892   5.028   3.142   5.513
 2164WAT      O 6893   2.321   4.379   5.348
 2164WAT     H1 6894   2.253   4.428   5.302
 2164WAT     H2 6895   2.277   4.299   5.377
 2165WAT      O 6896   0.305   2.810   0.273
 2165WAT     H1 6897   0.315   2.735   0.215
 2165WAT     H2 6898   0.381   2.866   0.253
 2166WAT      O 6899   6.965   1.511   5.833
 2166WAT     H1 6900   7.004   1.569   5.767
 2166WAT     H2 6901   6.899   1.460   5.785
 2167WAT      O 6902   4.220   2.960   1.292
 2167WAT     H1 6903   4.263   2.890   1.243
 2167WAT     H2 6904   4.163   3.002   1.228
 2168WAT      O 6905   0.274   6.123   0.680
 2168WAT     H1 6906   0.187   6.162   0.686
 2168WAT     H2 6907   0.260   6.038   0.639
 2169WAT      O 6908   5.064   0.918   4.238
 2169WAT     H1 6909   5.091   0.864   4.163
 2169WAT     H2 6910   5.053   1.006   4.201
 2170WAT      O 6911   5.656   5.889   3.617
 2170WAT     H1 6912   5.623   5.879   3.528
 2170WAT     H2 6913   5.744   5.926   3.606
 2171WAT      O 6914   4.925   1.799   1.129
 2171WAT     H1 6915   4.955   1.850   1.055
 2171WAT     H2 6916   4.916   1.862   1.200
 2172WAT      O 6917   5.820   1.766   3.610
 2172WAT     H1 6918   5.909   1.748   3.579
 2172WAT     H2 6919   5.831   1.794   3.700
 2173WAT      O 6920   2.041   1.606   3.185
 2173WAT     H1 6921   2.031   1.648   3.270
 2173WAT     H2 6922   2.081   1.673   3.130
 2174WAT      O 6923   1.324   0.405   1.956
 2174WAT     H1 6924   1.313   0.320   1.999
 2174WAT     H2 6925   1.238   0.426   1.922
 2175WAT      O 6926   7.327   1.388   4.751
 2175WAT     H1 6927   7.313   1.345   4.666
 2175WAT     H2 6928   7.417   1.421   4.745
 2176WAT      O 6929   0.269   3.516   3.909
 2176WAT     H1 6930   0.206   3.549   3.845
 2176WAT     H2 6931   0.352   3.512   3.861
 2177WAT      O 6932   0.040   6.688   0.507
 2177WAT     H1 6933   0.056   6.597   0.483
 2177WAT     H2 6934  -0.045   6.708   0.469
 2178WAT      O 6935   2.499   3.439   0.343
 2178WAT     H1 6936   2.490   3.527   0.379
 2178WAT     H2 6937   2.590   3.415   0.359
 2179WAT      O 6938   5.586   1.923   3.273
 2179WAT     H1 6939   5.652   1.989   3.292
 2179WAT     H2 6940   5.634   1.852   3.231
 2180WAT      O 6941   0.107   4.476   3.100
 2180WAT     H1 6942   0.167   4.413   3.060
 2180WAT     H2 6943   0.098   4.446   3.190
 2181WAT      O 6944   5.557   5.735   2.612
 2181WAT     H1 6945   5.540   5.682   2.534
 2181WAT     H2 6946   5.639   5.780   2.592
 2182WAT      O 6947   4.272   3.782   1.181
 2182WAT     H1 6948   4.185   3.778   1.221
 2182WAT     H2 6949   4.272   3.863   1.131
 2183WAT      O 6950   1.267   3.336   6.120
 2183WAT     H1 6951   1.299   3.269   6.060
 2183WAT     H2 6952   1.265   3.416   6.067
 2184WAT      O 6953   0.431   6.312   4.070
 2184WAT     H1 6954   0.525   6.300   4.086
 2184WAT     H2 6955   0.423   6.315   3.974
 2185WAT      O 6956   0.605   2.819   3.970
 2185WAT     H1 6957   0.521   2.846   3.932
 2185WAT     H2 6958   0.656   2.788   3.895
 2186WAT      O 6959   2.368   6.300   5.240
 2186WAT     H1 6960   2.430   6.309   5.168
 2186WAT     H2 6961   2.319   6.220   5.221
 2187WAT      O 6962   6.565   2.388   5.045
 2187WAT     H1 6963   6.636   2.343   4.999
 2187WAT     H2 6964   6.528   2.322   5.104
 2188WAT      O 6965   1.237   7.070   3.124
 2188WAT     H1 6966   1.278   6.989   3.094
 2188WAT     H2 6967   1.151   7.070   3.084
 2189WAT      O 6968   4.572   1.131   0.449
 2189WAT     H1 6969   4.606   1.092   0.369
 2189WAT     H2 6970   4.487   1.167   0.423
 2190WAT      O 6971   6.286   2.942   4.921
 2190WAT     H1 6972   6.195   2.929   4.893
 2190WAT     H2 6973   6.326   2.988   4.848
 2191WAT      O 6974   3.743   6.413   0.066
 2191WAT     H1 6975   3.752   6.402  -0.029
 2191WAT     H2 6976   3.651   6.436   0.079
 2192WAT      O 6977   3.403   6.745   1.531
 2192WAT     H1 6978   3.413   6.653   1.555
 2192WAT     H2 6979   3.400   6.745   1.436
 2193WAT      O 6980   3.423   0.821   0.360
 2193WAT     H1 6981   3.487   0.887   0.332
 2193WAT     H2 6982   3.390   0.783   0.279
 2194WAT      O 6983   1.169   1.563   1.218
 2194WAT     H1 6984   1.261   1.573   1.195
 2194WAT     H2 6985   1.125   1.544   1.136
 2195WAT      O 6986   0.278   2.692   4.241
 2195WAT     H1 6987   0.309   2.704   4.151
 2195WAT     H2 6988   0.238   2.776   4.264
 2196WAT      O 6989   5.455   5.822   4.780
 2196WAT     H1 6990   5.520   5.765   4.739
 2196WAT     H2 6991   5.488   5.911   4.766
 2197WAT      O 6992   4.423   2.323   0.461
 2197WAT     H1 6993   4.335   2.330   0.423
 2197WAT     H2 6994   4.481   2.316   0.385
 2198WAT      O 6995   1.191   3.920   3.319
 2198WAT     H1 6996   1.140   3.867   3.380
 2198WAT     H2 6997   1.193   3.868   3.238
 2199WAT      O 6998   0.078   2.042   6.015
 2199WAT     H1 6999   0.087   2.134   5.990
 2199WAT     H2 7000   0.016   2.006   5.951
 2200WAT      O 7001   5.589   4.555   0.898
 2200WAT     H1 7002   5.537   4.632   0.876
 2200WAT     H2 7003   5.668   4.562   0.845
 2201WAT      O 7004   7.060   3.444   3.087
 2201WAT     H1 7005   7.140   3.489   3.061
 2201WAT     H2 7006   6.989   3.503   3.060
 2202WAT      O 7007   1.936   2.627   2.050
 2202WAT     H1 7008   1.984   2.596   1.973
 2202WAT     H2 7009   1.880   2.553   2.074
 2203WAT      O 7010   1.355   3.416   3.683
 2203WAT     H1 7011   1.355   3.469   3.762
 2203WAT     H2 7012   1.369   3.326   3.715
 2204WAT      O 7013   5.520   4.676   6.038
 2204WAT     H1 7014   5.465   4.661   5.961
 2204WAT     H2 7015   5.593   4.728   6.005
 2205WAT      O 7016   7.545   1.986   1.541
 2205WAT     H1 7017   7.638   1.967   1.540
 2205WAT     H2 7018   7.515   1.967   1.452
 2206WAT      O 7019   6.612   4.331   3.617
 2206WAT     H1 7020   6.551   4.280   3.563
 2206WAT     H2 7021   6.693   4.333   3.567
 2207WAT      O 7022   5.375   2.900   3.501
 2207WAT     H1 7023   5.346   2.830   3.442
 2207WAT     H2 7024   5.463   2.874   3.529
 2208WAT      O 7025   7.182   6.173   3.324
 2208WAT     H1 7026   7.149   6.259   3.349
 2208WAT     H2 7027   7.108   6.114   3.335
 2209WAT      O 7028   3.082   4.601   3.903
 2209WAT     H1 7029   3.143   4.673   3.885
 2209WAT     H2 7030   3.139   4.525   3.913
 2210WAT      O 7031   4.998   3.673   1.850
 2210WAT     H1 7032   5.028   3.704   1.765
 2210WAT     H2 7033   4.927   3.734   1.873
 2211WAT      O 7034   0.859   6.108   1.132
 2211WAT     H1 7035   0.906   6.133   1.052
 2211WAT     H2 7036   0.769   6.135   1.117
 2212WAT      O 7037   7.571   6.131   0.938
 2212WAT     H1 7038   7.631   6.058   0.949
 2212WAT     H2 7039   7.566   6.145   0.843
 2213WAT      O 7040   7.202   6.945   2.087
 2213WAT     H1 7041   7.178   7.028   2.129
 2213WAT     H2 7042   7.123   6.917   2.042
 2214WAT      O 7043   1.613   7.018   3.734
 2214WAT     H1 7044   1.618   7.011   3.639
 2214WAT     H2 7045   1.703   7.007   3.763
 2215WAT      O 7046   6.461   5.583   0.994
 2215WAT     H1 7047   6.498   5.623   0.916
 2215WAT     H2 7048   6.405   5.513   0.961
 2216WAT      O 7049   6.045   6.686   4.541
 2216WAT     H1 7050   6.136   6.714   4.539
 2216WAT     H2 7051   6.046   6.605   4.592
 2217WAT      O 7052   7.129   6.367   4.000
 2217WAT     H1 7053   7.047   6.318   4.007
 2217WAT     H2 7054   7.179   6.342   4.078
 2218WAT      O 7055   0.833   0.137   0.072
 2218WAT     H1 7056   0.914   0.110   0.029
 2218WAT     H2 7057   0.768   0.072   0.045
 2219WAT      O 7058   1.779   3.583   3.571
 2219WAT     H1 7059   1.821   3.666   3.546
 2219WAT     H2 7060   1.724   3.606   3.646
 2220WAT      O 7061   0.510   3.006   5.588
 2220WAT     H1 7062   0.505   2.915   5.616
 2220WAT     H2 7063   0.534   3.002   5.495
 2221WAT      O 7064   7.162   2.587   1.597
 2221WAT     H1 7065   7.124   2.623   1.677
 2221WAT     H2 7066   7.184   2.665   1.545
 2222WAT      O 7067   1.105   3.113   3.749
 2222WAT     H1 7068   1.041   3.182   3.766
 2222WAT     H2 7069   1.183   3.159   3.719
 2223WAT      O 7070   6.007   5.477   0.152
 2223WAT     H1 7071   5.921   5.471   0.193
 2223WAT     H2 7072   6.038   5.566   0.170
 2224WAT      O 7073   3.748   0.904   4.824
 2224WAT     H1 7074   3.701   0.887   4.743
 2224WAT     H2 7075   3.839   0.878   4.805
 2225WAT      O 7076   4.755   4.187   0.129
 2225WAT     H1 7077   4.809   4.259   0.096
 2225WAT     H2 7078   4.667   4.206   0.096
 2226WAT      O 7079   4.747   4.358   5.628
 2226WAT     H1 7080   4.656   4.388   5.624
 2226WAT     H2 7081   4.786   4.391   5.547
 2227WAT      O 7082   6.998   1.132   5.831
 2227WAT     H1 7083   7.084   1.171   5.817
 2227WAT     H2 7084   7.017   1.043   5.861
 2228WAT      O 7085   0.287   0.978   3.672
 2228WAT     H1 7086   0.198   1.012   3.671
 2228WAT     H2 7087   0.288   0.909   3.606
 2229WAT      O 7088   4.182   3.024   0.690
 2229WAT     H1 7089   4.241   2.953   0.717
 2229WAT     H2 7090   4.225   3.103   0.723
 2230WAT      O 7091   3.469   5.259   2.511
 2230WAT     H1 7092   3.440   5.181   2.463
 2230WAT     H2 7093   3.421   5.331   2.469
 2231WAT      O 7094   4.468   2.103   3.322
 2231WAT     H1 7095   4.475   2.195   3.346
 2231WAT     H2 7096   4.442   2.104   3.230
 2232WAT      O 7097   2.574   6.581   3.550
 2232WAT     H1 7098   2.610   6.649   3.607
 2232WAT     H2 7099   2.510   6.626   3.496
 2233WAT      O 7100   2.850   3.063   2.261
 2233WAT     H1 7101   2.936   3.105   2.264
 2233WAT     H2 7102   2.801   3.104   2.333
 2234WAT      O 7103   1.649   7.003   2.376
 2234WAT     H1 7104   1.610   7.057   2.307
 2234WAT     H2 7105   1.737   6.983   2.344
 2235WAT      O 7106   0.379   4.163   5.647
 2235WAT     H1 7107   0.298   4.213   5.659
 2235WAT     H2 7108   0.361   4.078   5.688
 2236WAT      O 7109   0.750   2.886   4.369
 2236WAT     H1 7110   0.799   2.905   4.290
 2236WAT     H2 7111   0.670   2.842   4.338
 2237WAT      O 7112   2.752   0.995   2.255
 2237WAT     H1 7113   2.796   0.914   2.232
 2237WAT     H2 7114   2.725   0.982   2.346
 2238WAT      O 7115   6.120   5.236   3.463
 2238WAT     H1 7116   6.191   5.298   3.479
 2238WAT     H2 7117   6.139   5.163   3.522
 2239WAT      O 7118   7.451   6.174   4.562
 2239WAT     H1 7119   7.437   6.190   4.469
 2239WAT     H2 7120   7.387   6.231   4.606
 2240WAT      O 7121   6.797   4.907   5.085
 2240WAT     H1 7122   6.869   4.852   5.053
 2240WAT     H2 7123   6.719   4.872   5.043
 2241WAT      O 7124   6.318   6.254   3.788
 2241WAT     H1 7125   6.237   6.303   3.801
 2241WAT     H2 7126   6.329   6.252   3.693
 2242WAT      O 7127   4.325   0.403   2.417
 2242WAT     H1 7128   4.359   0.342   2.352
 2242WAT     H2 7129   4.341   0.360   2.501
 2243WAT      O 7130   7.365   0.841   6.216
 2243WAT     H1 7131   7.446   0.890   6.225
 2243WAT     H2 7132   7.330   0.866   6.131
 2244WAT      O 7133   7.158   0.967   4.099
 2244WAT     H1 7134   7.230   0.917   4.061
 2244WAT     H2 7135   7.165   1.054   4.059
 2245WAT      O 7136   0.672   6.982   3.047
 2245WAT     H1 7137   0.742   6.921   3.024
 2245WAT     H2 7138   0.602   6.963   2.985
 2246WAT      O 7139   0.601   1.547   3.236
 2246WAT     H1 7140   0.682   1.556   3.185
 2246WAT     H2 7141   0.623   1.484   3.305
 2247WAT      O 7142   1.389   2.655   4.303
 2247WAT     H1 7143   1.401   2.560   4.303
 2247WAT     H2 7144   1.322   2.670   4.236
 2248WAT      O 7145   2.462   6.620   5.697
 2248WAT     H1 7146   2.550   6.650   5.717
 2248WAT     H2 7147   2.444   6.652   5.609
 2249WAT      O 7148   5.642   5.507   3.529
 2249WAT     H1 7149   5.645   5.496   3.624
 2249WAT     H2 7150   5.719   5.462   3.496
 2250WAT      O 7151   0.475   0.212   4.461
 2250WAT     H1 7152   0.471   0.253   4.375
 2250WAT     H2 7153   0.421   0.133   4.454
 2251WAT      O 7154   0.251   6.206   2.720
 2251WAT     H1 7155   0.316   6.138   2.705
 2251WAT     H2 7156   0.258   6.262   2.642
 2252WAT      O 7157   2.832   6.602   4.284
 2252WAT     H1 7158   2.754   6.623   4.336
 2252WAT     H2 7159   2.804   6.532   4.225
 2253WAT      O 7160   2.859   1.290   2.603
 2253WAT     H1 7161   2.943   1.336   2.608
 2253WAT     H2 7162   2.805   1.345   2.546
 2254WAT      O 7163   6.262   2.759   2.466
 2254WAT     H1 7164   6.194   2.692   2.469
 2254WAT     H2 7165   6.314   2.738   2.389
 2255WAT      O 7166   2.057   0.572   0.977
 2255WAT     H1 7167   2.091   0.642   0.920
 2255WAT     H2 7168   2.004   0.518   0.919
 2256WAT      O 7169   0.997   6.376   3.614
 2256WAT     H1 7170   0.932   6.331   3.560
 2256WAT     H2 7171   0.968   6.467   3.614
 2257WAT      O 7172   6.356   5.334   1.234
 2257WAT     H1 7173   6.295   5.339   1.161
 2257WAT     H2 7174   6.409   5.414   1.227
 2258WAT      O 7175   7.554   4.914   5.623
 2258WAT     H1 7176   7.506   4.973   5.565
 2258WAT     H2 7177   7.625   4.880   5.569
 2259WAT      O 7178   3.693   0.938   5.074
 2259WAT     H1 7179   3.607   0.897   5.078
 2259WAT     H2 7180   3.723   0.920   4.985
 2260WAT      O 7181   6.895   0.991   5.222
 2260WAT     H1 7182   6.889   0.982   5.318
 2260WAT     H2 7183   6.981   0.955   5.200
 2261WAT      O 7184   6.598   4.772   3.731
 2261WAT     H1 7185   6.552   4.689   3.717
 2261WAT     H2 7186   6.597   4.783   3.826
 2262WAT      O 7187   7.563   3.676   6.114
 2262WAT     H1 7188   7.627   3.683   6.043
 2262WAT     H2 7189   7.551   3.582   6.126
 2263WAT      O 7190   1.123   4.692   3.920
 2263WAT     H1 7191   1.218   4.684   3.911
 2263WAT     H2 7192   1.088   4.630   3.855
 2264WAT      O 7193   6.168   3.578   1.367
 2264WAT     H1 7194   6.089   3.630   1.359
 2264WAT     H2 7195   6.193   3.558   1.277
 2265WAT      O 7196   6.748   3.640   1.645
 2265WAT     H1 7197   6.680   3.696   1.682
 2265WAT     H2 7198   6.742   3.654   1.550
 2266WAT      O 7199   2.827   4.320   5.658
 2266WAT     H1 7200   2.804   4.289   5.570
 2266WAT     H2 7201   2.898   4.382   5.644
 2267WAT      O 7202   1.495   1.474   2.410
 2267WAT     H1 7203   1.408   1.482   2.372
 2267WAT     H2 7204   1.550   1.530   2.355
 2268WAT      O 7205   1.389   2.785   5.540
 2268WAT     H1 7206   1.356   2.860   5.492
 2268WAT     H2 7207   1.334   2.712   5.511
 2269WAT      O 7208   1.495   2.931   3.632
 2269WAT     H1 7209   1.461   2.889   3.711
 2269WAT     H2 7210   1.500   2.859   3.568
 2270WAT      O 7211   0.299   1.962   5.640
 2270WAT     H1 7212   0.291   1.917   5.556
 2270WAT     H2 7213   0.210   1.964   5.674
 2271WAT      O 7214   7.296   6.150   5.845
 2271WAT     H1 7215   7.283   6.178   5.754
 2271WAT     H2 7216   7.232   6.200   5.895
 2272WAT      O 7217   4.551   4.915   0.984
 2272WAT     H1 7218   4.460   4.913   0.957
 2272WAT     H2 7219   4.592   4.979   0.926
 2273WAT      O 7220   0.103   3.044   1.743
 2273WAT     H1 7221   0.047   3.002   1.678
 2273WAT     H2 7222   0.053   3.119   1.774
 2274WAT      O 7223   7.250   2.088   1.902
 2274WAT     H1 7224   7.193   2.099   1.826
 2274WAT     H2 7225   7.211   2.017   1.952
 2275WAT      O 7226   7.108   5.936   4.372
 2275WAT     H1 7227   7.130   5.987   4.294
 2275WAT     H2 7228   7.039   5.876   4.343
 2276WAT      O 7229   1.673   5.946   0.909
 2276WAT     H1 7230   1.698   5.855   0.893
 2276WAT     H2 7231   1.721   5.971   0.988
 2277WAT      O 7232   1.510   2.944   1.068
 2277WAT     H1 7233   1.518   2.856   1.105
 2277WAT     H2 7234   1.599   2.979   1.069
 2278WAT      O 7235   7.215   2.473   3.215
 2278WAT     H1 7236   7.225   2.496   3.307
 2278WAT     H2 7237   7.229   2.555   3.167
 2279WAT      O 7238   7.232   5.248   2.946
 2279WAT     H1 7239   7.208   5.159   2.972
 2279WAT     H2 7240   7.161   5.275   2.888
 2280WAT      O 7241   0.728   1.444   5.921
 2280WAT     H1 7242   0.741   1.367   5.866
 2280WAT     H2 7243   0.817   1.474   5.941
 2281WAT      O 7244   2.664   4.972   4.008
 2281WAT     H1 7245   2.721   4.909   3.964
 2281WAT     H2 7246   2.645   5.038   3.941
 2282WAT      O 7247   7.567   0.483   1.381
 2282WAT     H1 7248   7.629   0.469   1.309
 2282WAT     H2 7249   7.494   0.529   1.340
 2283WAT      O 7250   3.253   6.959   5.514
 2283WAT     H1 7251   3.254   6.886   5.576
 2283WAT     H2 7252   3.162   6.968   5.487
 2284WAT      O 7253   7.358   2.856   3.936
 2284WAT     H1 7254   7.337   2.815   3.852
 2284WAT     H2 7255   7.424   2.923   3.915
 2285WAT      O 7256   6.208   3.892   3.733
 2285WAT     H1 7257   6.180   3.805   3.703
 2285WAT     H2 7258   6.304   3.885   3.740
 2286WAT      O 7259   7.219   5.659   5.515
 2286WAT     H1 7260   7.219   5.575   5.560
 2286WAT     H2 7261   7.295   5.705   5.550
 2287WAT      O 7262   3.321   3.600   6.158
 2287WAT     H1 7263   3.349   3.670   6.099
 2287WAT     H2 7264   3.295   3.529   6.100
 2288WAT      O 7265   3.805   2.869   2.407
 2288WAT     H1 7266   3.744   2.806   2.370
 2288WAT     H2 7267   3.891   2.828   2.398
 2289WAT      O 7268   5.982   5.185   3.186
 2289WAT     H1 7269   6.069   5.150   3.207
 2289WAT     H2 7270   5.921   5.120   3.222
 2290WAT      O 7271   6.580   0.269   1.300
 2290WAT     H1 7272   6.543   0.309   1.222
 2290WAT     H2 7273   6.545   0.179   1.300
 2291WAT      O 7274   0.314   1.965   5.952
 2291WAT     H1 7275   0.307   1.878   5.914
 2291WAT     H2 7276   0.225   1.985   5.981
 2292WAT      O 7277   0.613   0.038   3.022
 2292WAT     H1 7278   0.529   0.057   2.978
 2292WAT     H2 7279   0.642   0.122   3.056
 2293WAT      O 7280   7.289   1.029   3.205
 2293WAT     H1 7281   7.275   0.974   3.127
 2293WAT     H2 7282   7.239   1.109   3.187
 2294WAT      O 7283   6.295   6.905   4.871
 2294WAT     H1 7284   6.218   6.948   4.910
 2294WAT     H2 7285   6.284   6.918   4.777
 2295WAT      O 7286   6.118   2.261   4.764
 2295WAT     H1 7287   6.182   2.191   4.748
 2295WAT     H2 7288   6.090   2.287   4.677
 2296WAT      O 7289   5.644   1.385   2.172
 2296WAT     H1 7290   5.557   1.425   2.179
 2296WAT     H2 7291   5.700   1.456   2.140
 2297WAT      O 7292   1.510   2.066   1.177
 2297WAT     H1 7293   1.590   2.057   1.126
 2297WAT     H2 7294   1.442   2.089   1.113
 2298WAT      O 7295   3.704   6.346   0.342
 2298WAT     H1 7296   3.735   6.390   0.262
 2298WAT     H2 7297   3.688   6.418   0.403
 2299WAT      O 7298   6.126   4.610   0.822
 2299WAT     H1 7299   6.213   4.619   0.784
 2299WAT     H2 7300   6.094   4.699   0.833
 2300WAT      O 7301   6.022   0.964   1.142
 2300WAT     H1 7302   6.063   0.997   1.062
 2300WAT     H2 7303   5.981   0.881   1.117
 2301WAT      O 7304   5.667   5.452   1.854
 2301WAT     H1 7305   5.667   5.540   1.894
 2301WAT     H2 7306   5.719   5.463   1.774
 2302WAT      O 7307   4.726   1.118   5.422
 2302WAT     H1 7308   4.796   1.060   5.453
 2302WAT     H2 7309   4.732   1.114   5.327
 2303WAT      O 7310   4.971   0.034   5.581
 2303WAT     H1 7311   4.972  -0.015   5.498
 2303WAT     H2 7312   4.888   0.009   5.622
 2304WAT      O 7313   3.394   0.700   6.030
 2304WAT     H1 7314   3.431   0.765   5.971
 2304WAT     H2 7315   3.469   0.665   6.078
 2305WAT      O 7316   1.617   2.740   3.418
 2305WAT     H1 7317   1.583   2.754   3.329
 2305WAT     H2 7318   1.545   2.698   3.465
 2306WAT      O 7319   2.253   1.702   0.852
 2306WAT     H1 7320   2.301   1.681   0.772
 2306WAT     H2 7321   2.173   1.746   0.822
 2307WAT      O 7322   1.990   6.329   2.145
 2307WAT     H1 7323   1.993   6.311   2.239
 2307WAT     H2 7324   2.008   6.423   2.137
 2308WAT      O 7325   3.668   4.800   4.258
 2308WAT     H1 7326   3.709   4.777   4.341
 2308WAT     H2 7327   3.580   4.828   4.282
 2309WAT      O 7328   2.933   1.878   4.001
 2309WAT     H1 7329   2.998   1.941   3.971
 2309WAT     H2 7330   2.864   1.932   4.041
 2310WAT      O 7331   0.256   5.009   5.670
 2310WAT     H1 7332   0.253   4.948   5.596
 2310WAT     H2 7333   0.322   5.074   5.646
 2311WAT      O 7334   1.860   3.310   3.035
 2311WAT     H1 7335   1.946   3.348   3.019
 2311WAT     H2 7336   1.836   3.269   2.952
 2312WAT      O 7337   2.166   1.627   3.838
 2312WAT     H1 7338   2.235   1.580   3.884
 2312WAT     H2 7339   2.161   1.585   3.752
 2313WAT      O 7340   2.979   5.037   5.911
 2313WAT     H1 7341   2.929   5.087   5.974
 2313WAT     H2 7342   2.974   4.946   5.943
 2314WAT      O 7343   2.850   2.075   1.966
 2314WAT     H1 7344   2.799   2.156   1.964
 2314WAT     H2 7345   2.839   2.042   2.055
 2315WAT      O 7346   0.932   3.918   4.176
 2315WAT     H1 7347   0.868   3.900   4.245
 2315WAT     H2 7348   0.924   3.844   4.116
 2316WAT      O 7349   4.319   1.986   4.615
 2316WAT     H1 7350   4.337   1.894   4.633
 2316WAT     H2 7351   4.396   2.016   4.567
 2317WAT      O 7352   2.924   0.112   0.307
 2317WAT     H1 7353   2.857   0.180   0.299
 2317WAT     H2 7354   3.005   0.159   0.321
 2318WAT      O 7355   2.139   6.018   4.122
 2318WAT     H1 7356   2.177   5.977   4.199
 2318WAT     H2 7357   2.157   5.957   4.050
 2319WAT      O 7358   4.695   5.361   0.800
 2319WAT     H1 7359   4.614   5.368   0.750
 2319WAT     H2 7360   4.764   5.388   0.739
 2320WAT      O 7361   5.948   4.132   4.171
 2320WAT     H1 7362   5.875   4.075   4.144
 2320WAT     H2 7363   6.010   4.126   4.098
 2321WAT      O 7364   4.184   4.384   4.835
 2321WAT     H1 7365   4.114   4.381   4.770
 2321WAT     H2 7366   4.197   4.477   4.853
 2322WAT      O 7367   4.792   0.499   2.616
 2322WAT     H1 7368   4.733   0.574   2.617
 2322WAT     H2 7369   4.786   0.465   2.527
 2323WAT      O 7370   1.888   6.450   3.386
 2323WAT     H1 7371   1.810   6.455   3.330
 2323WAT     H2 7372   1.959   6.430   3.325
 2324WAT      O 7373   2.713   2.863   6.119
 2324WAT     H1 7374   2.750   2.927   6.181
 2324WAT     H2 7375   2.789   2.826   6.075
 2325WAT      O 7376   1.484   0.145   3.532
 2325WAT     H1 7377   1.457   0.059   3.499
 2325WAT     H2 7378   1.494   0.132   3.627
 2326WAT      O 7379   1.493   4.194   3.535
 2326WAT     H1 7380   1.465   4.131   3.468
 2326WAT     H2 7381   1.558   4.248   3.491
 2327WAT      O 7382   0.095   0.278   1.941
 2327WAT     H1 7383   0.142   0.320   1.870
 2327WAT     H2 7384   0.073   0.191   1.908
 2328WAT      O 7385   5.413   5.323   4.372
 2328WAT     H1 7386   5.399   5.325   4.277
 2328WAT     H2 7387   5.508   5.328   4.382
 2329WAT      O 7388   0.961   0.353   0.094
 2329WAT     H1 7389   0.976   0.353   0.000
 2329WAT     H2 7390   0.897   0.282   0.108
 2330WAT      O 7391   4.305   4.975   3.515
 2330WAT     H1 7392   4.210   4.981   3.526
 2330WAT     H2 7393   4.338   4.953   3.603
 2331WAT      O 7394   0.907   0.230   4.991
 2331WAT     H1 7395   0.955   0.172   5.051
 2331WAT     H2 7396   0.923   0.193   4.904
 2332WAT      O 7397   5.202   4.492   4.885
 2332WAT     H1 7398   5.204   4.416   4.942
 2332WAT     H2 7399   5.113   4.527   4.893
 2333WAT      O 7400   3.232   1.607   1.406
 2333WAT     H1 7401   3.161   1.570   1.355
 2333WAT     H2 7402   3.250   1.691   1.364
 2334WAT      O 7403   2.075   0.809   3.434
 2334WAT     H1 7404   2.074   0.789   3.528
 2334WAT     H2 7405   2.086   0.724   3.392
 2335WAT      O 7406   5.328   3.137   2.479
 2335WAT     H1 7407   5.255   3.167   2.533
 2335WAT     H2 7408   5.287   3.087   2.409
 2336WAT      O 7409   3.086   0.794   0.830
 2336WAT     H1 7410   3.157   0.782   0.766
 2336WAT     H2 7411   3.006   0.775   0.781
 2337WAT      O 7412   0.554   2.120   4.079
 2337WAT     H1 7413   0.587   2.132   3.990
 2337WAT     H2 7414   0.632   2.111   4.133
 2338WAT      O 7415   2.282   0.547   5.362
 2338WAT     H1 7416   2.320   0.466   5.327
 2338WAT     H2 7417   2.189   0.541   5.339
 2339WAT      O 7418   2.065   6.689   0.670
 2339WAT     H1 7419   2.068   6.769   0.617
 2339WAT     H2 7420   2.027   6.623   0.613
 2340WAT      O 7421   0.193   5.304   1.346
 2340WAT     H1 7422   0.202   5.215   1.380
 2340WAT     H2 7423   0.246   5.306   1.267
 2341WAT      O 7424   2.330   1.859   4.663
 2341WAT     H1 7425   2.355   1.917   4.591
 2341WAT     H2 7426   2.262   1.802   4.626
 2342WAT      O 7427   1.918   4.416   0.722
 2342WAT     H1 7428   1.857   4.473   0.676
 2342WAT     H2 7429   1.868   4.337   0.742
 2343WAT      O 7430   3.029   0.076   1.960
 2343WAT     H1 7431   3.040   0.170   1.948
 2343WAT     H2 7432   3.117   0.044   1.977
 2344WAT      O 7433   5.160   0.790   2.822
 2344WAT     H1 7434   5.124   0.734   2.753
 2344WAT     H2 7435   5.156   0.736   2.901
 2345WAT      O 7436   5.141   1.464   5.513
 2345WAT     H1 7437   5.105   1.508   5.436
 2345WAT     H2 7438   5.079   1.394   5.532
 2346WAT      O 7439   3.033   3.653   2.281
 2346WAT     H1 7440   2.998   3.592   2.346
 2346WAT     H2 7441   3.005   3.739   2.312
 2347WAT      O 7442   5.586   3.163   2.198
 2347WAT     H1 7443   5.599   3.068   2.193
 2347WAT     H2 7444   5.585   3.192   2.107
 2348WAT      O 7445   3.974   5.298   4.593
 2348WAT     H1 7446   4.060   5.331   4.566
 2348WAT     H2 7447   3.994   5.214   4.636
 2349WAT      O 7448   6.936   6.392   3.697
 2349WAT     H1 7449   6.998   6.318   3.700
 2349WAT     H2 7450   6.863   6.364   3.752
 2350WAT      O 7451   0.287   6.024   5.074
 2350WAT     H1 7452   0.223   6.095   5.063
 2350WAT     H2 7453   0.257   5.977   5.152
 2351WAT      O 7454   5.613   0.898   1.903
 2351WAT     H1 7455   5.633   0.987   1.876
 2351WAT     H2 7456   5.695   0.863   1.937
 2352WAT      O 7457   6.734   3.941   4.101
 2352WAT     H1 7458   6.706   3.946   4.193
 2352WAT     H2 7459   6.760   3.850   4.089
 2353WAT      O 7460   4.202   5.586   2.149
 2353WAT     H1 7461   4.219   5.680   2.145
 2353WAT     H2 7462   4.111   5.578   2.123
 2354WAT      O 7463   6.330   2.371   2.181
 2354WAT     H1 7464   6.250   2.356   2.231
 2354WAT     H2 7465   6.391   2.409   2.244
 2355WAT      O 7466   1.435   5.545   2.134
 2355WAT     H1 7467   1.434   5.535   2.229
 2355WAT     H2 7468   1.520   5.509   2.107
 2356WAT      O 7469   5.317   2.126   4.051
 2356WAT     H1 7470   5.245   2.139   3.990
 2356WAT     H2 7471   5.390   2.175   4.013
 2357WAT      O 7472   7.600   4.804   3.833
 2357WAT     H1 7473   7.635   4.793   3.744
 2357WAT     H2 7474   7.677   4.806   3.889
 2358WAT      O 7475   2.815   3.148   4.313
 2358WAT     H1 7476   2.763   3.069   4.299
 2358WAT     H2 7477   2.891   3.138   4.255
 2359WAT      O 7478   0.107   4.618   1.046
 2359WAT     H1 7479   0.184   4.565   1.066
 2359WAT     H2 7480   0.140   4.708   1.042
 2360WAT      O 7481   5.441   4.476   1.817
 2360WAT     H1 7482   5.383   4.538   1.861
 2360WAT     H2 7483   5.512   4.460   1.879
 2361WAT      O 7484   0.483   2.310   6.234
 2361WAT     H1 7485   0.437   2.362   6.168
 2361WAT     H2 7486   0.441   2.224   6.231
 2362WAT      O 7487   7.229   7.071   3.582
 2362WAT     H1 7488   7.214   7.063   3.488
 2362WAT     H2 7489   7.182   6.997   3.621
 2363WAT      O 7490   0.866   6.224   1.392
 2363WAT     H1 7491   0.951   6.229   1.347
 2363WAT     H2 7492   0.831   6.138   1.366
 2364WAT      O 7493   2.420   3.194   3.842
 2364WAT     H1 7494   2.466   3.142   3.777
 2364WAT     H2 7495   2.476   3.270   3.857
 2365WAT      O 7496   6.002   5.336   4.273
 2365WAT     H1 7497   6.048   5.381   4.344
 2365WAT     H2 7498   6.027   5.385   4.194
 2366WAT      O 7499   3.123   6.266   4.417
 2366WAT     H1 7500   3.079   6.259   4.333
 2366WAT     H2 7501   3.217   6.270   4.396
 2367WAT      O 7502   3.318   0.283   2.177
 2367WAT     H1 7503   3.378   0.356   2.189
 2367WAT     H2 7504   3.297   0.253   2.265
 2368WAT      O 7505   3.365   2.012   0.149
 2368WAT     H1 7506   3.426   2.075   0.186
 2368WAT     H2 7507   3.384   2.012   0.055
 2369WAT      O 7508   5.189   2.224   5.094
 2369WAT     H1 7509   5.146   2.221   5.179
 2369WAT     H2 7510   5.193   2.133   5.065
 2370WAT      O 7511   7.249   3.211   5.554
 2370WAT     H1 7512   7.224   3.128   5.514
 2370WAT     H2 7513   7.178   3.271   5.529
 2371WAT      O 7514   3.313   0.017   6.081
 2371WAT     H1 7515   3.281   0.065   6.157
 2371WAT     H2 7516   3.326   0.083   6.013
 2372WAT      O 7517   5.979   5.045   4.600
 2372WAT     H1 7518   5.928   5.048   4.680
 2372WAT     H2 7519   5.917   5.069   4.530
 2373WAT      O 7520   3.724   6.099   2.873
 2373WAT     H1 7521   3.695   6.074   2.785
 2373WAT     H2 7522   3.643   6.107   2.924
 2374WAT      O 7523   3.341   1.013   2.088
 2374WAT     H1 7524   3.329   1.037   1.996
 2374WAT     H2 7525   3.432   1.039   2.108
 2375WAT      O 7526   3.592   1.370   4.102
 2375WAT     H1 7527   3.580   1.320   4.021
 2375WAT     H2 7528   3.508   1.362   4.147
 2376WAT      O 7529   1.942   0.346   3.092
 2376WAT     H1 7530   1.882   0.296   3.037
 2376WAT     H2 7531   1.992   0.400   3.031
 2377WAT      O 7532   1.282   0.752   4.641
 2377WAT     H1 7533   1.312   0.837   4.673
 2377WAT     H2 7534   1.209   0.772   4.583
 2378WAT      O 7535   1.222   5.139   5.885
 2378WAT     H1 7536   1.127   5.149   5.880
 2378WAT     H2 7537   1.256   5.214   5.836
 2379WAT      O 7538   1.043   6.453   1.134
 2379WAT     H1 7539   1.126   6.413   1.106
 2379WAT     H2 7540   0.976   6.393   1.101
 2380WAT      O 7541   5.053   4.463   0.393
 2380WAT     H1 7542   5.106   4.389   0.363
 2380WAT     H2 7543   4.965   4.445   0.360
 2381WAT      O 7544   3.862   6.012   3.315
 2381WAT     H1 7545   3.790   6.001   3.377
 2381WAT     H2 7546   3.843   5.949   3.245
 2382WAT      O 7547   3.654   4.601   0.540
 2382WAT     H1 7548   3.730   4.567   0.586
 2382WAT     H2 7549   3.672   4.694   0.528
 2383WAT      O 7550   0.585   3.123   6.045
 2383WAT     H1 7551   0.591   3.216   6.023
 2383WAT     H2 7552   0.533   3.084   5.974
 2384WAT      O 7553   2.950   2.336   5.353
 2384WAT     H1 7554   2.862   2.337   5.315
 2384WAT     H2 7555   3.005   2.373   5.284
 2385WAT      O 7556   5.337   1.323   4.726
 2385WAT     H1 7557   5.346   1.411   4.762
 2385WAT     H2 7558   5.420   1.279   4.747
 2386WAT      O 7559   2.023   2.782   3.931
 2386WAT     H1 7560   2.020   2.687   3.941
 2386WAT     H2 7561   2.111   2.801   3.899
 2387WAT      O 7562   4.896   2.582   6.037
 2387WAT     H1 7563   4.953   2.656   6.061
 2387WAT     H2 7564   4.814   2.599   6.083
 2388WAT      O 7565   6.853   5.327   2.123
 2388WAT     H1 7566   6.939   5.357   2.151
 2388WAT     H2 7567   6.827   5.388   2.054
 2389WAT      O 7568   6.596   4.447   4.979
 2389WAT     H1 7569   6.526   4.471   4.918
 2389WAT     H2 7570   6.572   4.491   5.061
 2390WAT      O 7571   1.921   5.694   3.973
 2390WAT     H1 7572   1.926   5.654   4.060
 2390WAT     H2 7573   1.917   5.620   3.912
 2391WAT      O 7574   4.766   3.334   3.911
 2391WAT     H1 7575   4.819   3.291   3.843
 2391WAT     H2 7576   4.828   3.390   3.958
 2392WAT      O 7577   6.951   5.666   6.224
 2392WAT     H1 7578   6.893   5.666   6.147
 2392WAT     H2 7579   6.938   5.752   6.263
 2393WAT      O 7580   5.521   1.672   1.547
 2393WAT     H1 7581   5.512   1.702   1.457
 2393WAT     H2 7582   5.519   1.752   1.599
 2394WAT      O 7583   0.974   0.158   4.739
 2394WAT     H1 7584   0.951   0.074   4.779
 2394WAT     H2 7585   1.015   0.135   4.656
 2395WAT      O 7586   6.565   5.511   4.050
 2395WAT     H1 7587   6.646   5.562   4.043
 2395WAT     H2 7588   6.558   5.465   3.967
 2396WAT      O 7589   5.034   2.337   6.098
 2396WAT     H1 7590   4.979   2.351   6.020
 2396WAT     H2 7591   5.120   2.372   6.073
 2397WAT      O 7592   3.339   5.331   4.601
 2397WAT     H1 7593   3.345   5.379   4.684
 2397WAT     H2 7594   3.347   5.239   4.627
 2398WAT      O 7595   4.523   3.390   2.877
 2398WAT     H1 7596   4.584   3.326   2.840
 2398WAT     H2 7597   4.438   3.348   2.873
 2399WAT      O 7598   2.144   4.092   1.232
 2399WAT     H1 7599   2.078   4.024   1.246
 2399WAT     H2 7600   2.221   4.045   1.201
 2400WAT      O 7601   3.541   1.550   5.163
 2400WAT     H1 7602   3.454   1.518   5.138
 2400WAT     H2 7603   3.582   1.573   5.079
 2401WAT      O 7604   2.038   0.975   5.335
 2401WAT     H1 7605   1.968   0.910   5.326
 2401WAT     H2 7606   2.107   0.930   5.384
 2402WAT      O 7607   5.868   1.107   5.154
 2402WAT     H1 7608   5.841   1.177   5.213
 2402WAT     H2 7609   5.931   1.055   5.205
 2403WAT      O 7610   1.444   1.984   4.314
 2403WAT     H1 7611   1.410   2.004   4.227
 2403WAT     H2 7612   1.536   2.009   4.311
 2404WAT      O 7613   1.153   5.879   2.639
 2404WAT     H1 7614   1.122   5.941   2.573
 2404WAT     H2 7615   1.195   5.933   2.705
 2405WAT      O 7616   3.206   0.096   5.578
 2405WAT     H1 7617   3.124   0.053   5.603
 2405WAT     H2 7618   3.182   0.188   5.569
 2406WAT      O 7619   6.983   4.451   6.041
 2406WAT     H1 7620   6.945   4.387   6.101
 2406WAT     H2 7621   7.021   4.398   5.971
 2407WAT      O 7622   1.980   3.318   1.993
 2407WAT     H1 7623   1.997   3.410   1.973
 2407WAT     H2 7624   2.065   3.275   1.984
 2408WAT      O 7625   4.737   5.772   1.537
 2408WAT     H1 7626   4.727   5.699   1.476
 2408WAT     H2 7627   4.772   5.732   1.616
 2409WAT      O 7628   2.371   3.881   1.982
 2409WAT     H1 7629   2.399   3.879   2.073
 2409WAT     H2 7630   2.320   3.962   1.974
 2410WAT      O 7631   7.383   2.655   2.296
 2410WAT     H1 7632   7.400   2.609   2.214
 2410WAT     H2 7633   7.298   2.696   2.284
 2411WAT      O 7634   2.083   0.451   1.276
 2411WAT     H1 7635   2.109   0.472   1.186
 2411WAT     H2 7636   2.162   0.415   1.317
 2412WAT      O 7637   6.916   5.080   6.192
 2412WAT     H1 7638   6.858   5.088   6.117
 2412WAT     H2 7639   6.899   5.159   6.245
 2413WAT      O 7640   1.522   0.452   3.813
 2413WAT     H1 7641   1.562   0.413   3.736
 2413WAT     H2 7642   1.465   0.520   3.778
 2414WAT      O 7643   1.767   4.192   1.307
 2414WAT     H1 7644   1.701   4.251   1.271
 2414WAT     H2 7645   1.838   4.249   1.336
 2415WAT      O 7646   3.035   0.348   5.193
 2415WAT     H1 7647   3.044   0.322   5.285
 2415WAT     H2 7648   3.111   0.308   5.149
 2416WAT      O 7649   0.395   2.374   2.054
 2416WAT     H1 7650   0.402   2.408   1.965
 2416WAT     H2 7651   0.368   2.449   2.106
 2417WAT      O 7652   7.273   3.894   0.537
 2417WAT     H1 7653   7.294   3.832   0.606
 2417WAT     H2 7654   7.355   3.907   0.490
 2418WAT      O 7655   7.454   1.181   4.478
 2418WAT     H1 7656   7.507   1.256   4.451
 2418WAT     H2 7657   7.477   1.112   4.416
 2419WAT      O 7658   4.530   6.215   4.029
 2419WAT     H1 7659   4.582   6.275   3.975
 2419WAT     H2 7660   4.582   6.203   4.108
 2420WAT      O 7661   4.963   4.279   1.624
 2420WAT     H1 7662   5.042   4.322   1.657
 2420WAT     H2 7663   4.960   4.302   1.531
 2421WAT      O 7664   6.295   5.100   3.226
 2421WAT     H1 7665   6.306   5.189   3.193
 2421WAT     H2 7666   6.340   5.045   3.162
 2422WAT      O 7667   3.246   2.832   1.900
 2422WAT     H1 7668   3.333   2.868   1.915
 2422WAT     H2 7669   3.257   2.737   1.905
 2423WAT      O 7670   5.589   0.249   5.062
 2423WAT     H1 7671   5.620   0.160   5.044
 2423WAT     H2 7672   5.537   0.272   4.986
 2424WAT      O 7673   1.370   6.718   4.977
 2424WAT     H1 7674   1.293   6.679   5.018
 2424WAT     H2 7675   1.344   6.808   4.960
 2425WAT      O 7676   5.285   3.777   0.481
 2425WAT     H1 7677   5.327   3.843   0.536
 2425WAT     H2 7678   5.342   3.700   0.487
 2426WAT      O 7679   5.425   4.755   0.837
 2426WAT     H1 7680   5.394   4.755   0.928
 2426WAT     H2 7681   5.351   4.723   0.786
 2427WAT      O 7682   7.148   6.528   1.866
 2427WAT     H1 7683   7.173   6.450   1.817
 2427WAT     H2 7684   7.053   6.520   1.878
 2428WAT      O 7685   6.912   4.733   3.357
 2428WAT     H1 7686   6.909   4.730   3.452
 2428WAT     H2 7687   6.824   4.711   3.329
 2429WAT      O 7688   3.535   5.859   1.076
 2429WAT     H1 7689   3.446   5.884   1.052
 2429WAT     H2 7690   3.533   5.855   1.172
 2430WAT      O 7691   3.671   4.895   4.999
 2430WAT     H1 7692   3.693   4.882   4.907
 2430WAT     H2 7693   3.668   4.807   5.036
 2431WAT      O 7694   3.699   2.436   4.880
 2431WAT     H1 7695   3.618   2.425   4.830
 2431WAT     H2 7696   3.766   2.396   4.825
 2432WAT      O 7697   0.638   3.841   4.523
 2432WAT     H1 7698   0.648   3.755   4.565
 2432WAT     H2 7699   0.654   3.823   4.430
 2433WAT      O 7700   4.435   4.858   4.811
 2433WAT     H1 7701   4.459   4.839   4.902
 2433WAT     H2 7702   4.358   4.804   4.794
 2434WAT      O 7703   3.991   6.181   6.007
 2434WAT     H1 7704   3.968   6.110   5.947
 2434WAT     H2 7705   4.063   6.145   6.059
 2435WAT      O 7706   3.000   4.464   0.431
 2435WAT     H1 7707   3.086   4.485   0.466
 2435WAT     H2 7708   3.005   4.490   0.339
 2436WAT      O 7709   6.515   1.058   2.506
 2436WAT     H1 7710   6.608   1.056   2.529
 2436WAT     H2 7711   6.496   1.151   2.493
 2437WAT      O 7712   1.804   3.875   3.262
 2437WAT     H1 7713   1.862   3.853   3.334
 2437WAT     H2 7714   1.822   3.809   3.195
 2438WAT      O 7715   6.533   4.548   2.964
 2438WAT     H1 7716   6.511   4.599   2.885
 2438WAT     H2 7717   6.584   4.474   2.931
 2439WAT      O 7718   0.045   3.323   3.837
 2439WAT     H1 7719   0.125   3.347   3.883
 2439WAT     H2 7720   0.073   3.260   3.771
 2440WAT      O 7721   3.366   3.232   0.898
 2440WAT     H1 7722   3.330   3.144   0.890
 2440WAT     H2 7723   3.335   3.278   0.820
 2441WAT      O 7724   6.251   7.078   0.981
 2441WAT     H1 7725   6.166   7.063   0.940
 2441WAT     H2 7726   6.255   7.013   1.051
 2442WAT      O 7727   0.367   0.117   5.530
 2442WAT     H1 7728   0.382   0.155   5.443
 2442WAT     H2 7729   0.453   0.123   5.573
 2443WAT      O 7730   0.808   5.083   3.907
 2443WAT     H1 7731   0.867   5.033   3.851
 2443WAT     H2 7732   0.827   5.175   3.886
 2444WAT      O 7733   6.845   6.623   4.972
 2444WAT     H1 7734   6.914   6.668   5.021
 2444WAT     H2 7735   6.888   6.591   4.893
 2445WAT      O 7736   4.669   1.961   5.547
 2445WAT     H1 7737   4.581   1.974   5.511
 2445WAT     H2 7738   4.703   1.886   5.498
 2446WAT      O 7739   6.431   3.583   0.305
 2446WAT     H1 7740   6.389   3.568   0.390
 2446WAT     H2 7741   6.492   3.655   0.321
 2447WAT      O 7742   3.448   1.038   1.243
 2447WAT     H1 7743   3.482   1.122   1.212
 2447WAT     H2 7744   3.400   1.002   1.169
 2448WAT      O 7745   0.395   2.513   6.040
 2448WAT     H1 7746   0.309   2.550   6.062
 2448WAT     H2 7747   0.439   2.583   5.992
 2449WAT      O 7748   7.103   7.019   3.880
 2449WAT     H1 7749   7.118   7.108   3.850
 2449WAT     H2 7750   7.128   6.964   3.805
 2450WAT      O 7751   6.144   0.039   6.030
 2450WAT     H1 7752   6.164   0.002   5.944
 2450WAT     H2 7753   6.052   0.017   6.045
 2451WAT      O 7754   2.243   5.672   4.590
 2451WAT     H1 7755   2.269   5.607   4.525
 2451WAT     H2 7756   2.151   5.651   4.610
 2452WAT      O 7757   0.663   3.537   5.259
 2452WAT     H1 7758   0.710   3.560   5.339
 2452WAT     H2 7759   0.717   3.470   5.218
 2453WAT      O 7760   5.853   4.723   4.565
 2453WAT     H1 7761   5.828   4.631   4.555
 2453WAT     H2 7762   5.770   4.769   4.582
 2454WAT      O 7763   2.086   6.009   3.204
 2454WAT     H1 7764   2.043   5.937   3.158
 2454WAT     H2 7765   2.060   6.087   3.154
 2455WAT      O 7766   4.456   4.659   0.843
 2455WAT     H1 7767   4.430   4.725   0.907
 2455WAT     H2 7768   4.467   4.579   0.894
 2456WAT      O 7769   1.415   5.086   0.755
 2456WAT     H1 7770   1.500   5.113   0.721
 2456WAT     H2 7771   1.382   5.023   0.691
 2457WAT      O 7772   7.619   1.612   3.195
 2457WAT     H1 7773   7.621   1.612   3.099
 2457WAT     H2 7774   7.544   1.668   3.217
 2458WAT      O 7775   4.538   1.075   5.850
 2458WAT     H1 7776   4.564   1.161   5.881
 2458WAT     H2 7777   4.461   1.091   5.795
 2459WAT      O 7778   1.115   6.805   2.780
 2459WAT     H1 7779   1.048   6.763   2.727
 2459WAT     H2 7780   1.142   6.882   2.730
 2460WAT      O 7781   2.308   3.384   0.968
 2460WAT     H1 7782   2.315   3.460   1.025
 2460WAT     H2 7783   2.240   3.408   0.904
 2461WAT      O 7784   1.316   1.952   0.274
 2461WAT     H1 7785   1.381   1.898   0.229
 2461WAT     H2 7786   1.368   2.012   0.327
 2462WAT      O 7787   4.219   0.868   3.572
 2462WAT     H1 7788   4.144   0.901   3.622
 2462WAT     H2 7789   4.231   0.931   3.501
 2463WAT      O 7790   3.815   2.372   1.254
 2463WAT     H1 7791   3.784   2.461   1.236
 2463WAT     H2 7792   3.788   2.356   1.345
 2464WAT      O 7793   6.856   2.143   4.936
 2464WAT     H1 7794   6.853   2.236   4.957
 2464WAT     H2 7795   6.889   2.140   4.846
 2465WAT      O 7796   2.236   2.301   0.753
 2465WAT     H1 7797   2.322   2.260   0.765
 2465WAT     H2 7798   2.242   2.383   0.801
 2466WAT      O 7799   7.015   2.314   1.942
 2466WAT     H1 7800   7.021   2.222   1.965
 2466WAT     H2 7801   6.939   2.320   1.884
 2467WAT      O 7802   1.632   0.628   4.000
 2467WAT     H1 7803   1.577   0.623   4.078
 2467WAT     H2 7804   1.610   0.550   3.950
 2468WAT      O 7805   5.660   5.643   2.875
 2468WAT     H1 7806   5.606   5.703   2.927
 2468WAT     H2 7807   5.637   5.663   2.784
 2469WAT      O 7808   4.427   4.550   5.356
 2469WAT     H1 7809   4.464   4.566   5.270
 2469WAT     H2 7810   4.336   4.527   5.339
 2470WAT      O 7811   6.933   1.130   2.035
 2470WAT     H1 7812   6.918   1.053   1.981
 2470WAT     H2 7813   6.884   1.114   2.116
 2471WAT      O 7814   1.784   2.677   0.183
 2471WAT     H1 7815   1.819   2.708   0.267
 2471WAT     H2 7816   1.854   2.696   0.120
 2472WAT      O 7817   1.603   3.950   2.844
 2472WAT     H1 7818   1.652   4.014   2.792
 2472WAT     H2 7819   1.643   3.866   2.821
 2473WAT      O 7820   4.860   4.166   0.402
 2473WAT     H1 7821   4.821   4.172   0.315
 2473WAT     H2 7822   4.824   4.241   0.449
 2474WAT      O 7823   4.572   4.131   5.738
 2474WAT     H1 7824   4.620   4.174   5.810
 2474WAT     H2 7825   4.559   4.042   5.768
 2475WAT      O 7826   3.325   5.984   1.446
 2475WAT     H1 7827   3.292   6.035   1.371
 2475WAT     H2 7828   3.405   5.943   1.413
 2476WAT      O 7829   7.421   1.331   2.185
 2476WAT     H1 7830   7.373   1.410   2.159
 2476WAT     H2 7831   7.356   1.260   2.176
 2477WAT      O 7832   5.142   2.201   0.216
 2477WAT     H1 7833   5.093   2.136   0.267
 2477WAT     H2 7834   5.128   2.175   0.125
 2478WAT      O 7835   1.209   2.038   1.881
 2478WAT     H1 7836   1.193   1.975   1.811
 2478WAT     H2 7837   1.122   2.057   1.917
 2479WAT      O 7838   4.063   6.918   2.213
 2479WAT     H1 7839   3.970   6.925   2.191
 2479WAT     H2 7840   4.108   6.955   2.137
 2480WAT      O 7841   6.008   5.722   5.003
 2480WAT     H1 7842   6.037   5.656   4.940
 2480WAT     H2 7843   5.993   5.801   4.951
 2481WAT      O 7844   4.776   4.490   3.124
 2481WAT     H1 7845   4.710   4.555   3.149
 2481WAT     H2 7846   4.726   4.420   3.083
 2482WAT      O 7847   3.545   5.854   1.935
 2482WAT     H1 7848   3.578   5.815   1.854
 2482WAT     H2 7849   3.450   5.852   1.926
 2483WAT      O 7850   6.402   4.715   1.088
 2483WAT     H1 7851   6.415   4.802   1.050
 2483WAT     H2 7852   6.394   4.657   1.013
 2484WAT      O 7853   4.595   1.898   1.989
 2484WAT     H1 7854   4.599   1.912   2.084
 2484WAT     H2 7855   4.671   1.944   1.955
 2485WAT      O 7856   1.166   4.193   0.839
 2485WAT     H1 7857   1.076   4.204   0.872
 2485WAT     H2 7858   1.185   4.100   0.856
 2486WAT      O 7859   3.244   6.915   6.113
 2486WAT     H1 7860   3.226   6.915   6.207
 2486WAT     H2 7861   3.167   6.874   6.074
 2487WAT      O 7862   4.188   4.865   0.607
 2487WAT     H1 7863   4.223   4.937   0.554
 2487WAT     H2 7864   4.249   4.792   0.592
 2488WAT      O 7865   6.024   6.693   3.632
 2488WAT     H1 7866   6.095   6.749   3.601
 2488WAT     H2 7867   5.972   6.748   3.690
 2489WAT      O 7868   4.067   5.871   1.097
 2489WAT     H1 7869   4.129   5.898   1.029
 2489WAT     H2 7870   3.997   5.827   1.050
 2490WAT      O 7871   6.626   6.271   2.151
 2490WAT     H1 7872   6.636   6.222   2.069
 2490WAT     H2 7873   6.599   6.358   2.123
 2491WAT      O 7874   1.603   3.991   3.113
 2491WAT     H1 7875   1.674   3.940   3.153
 2491WAT     H2 7876   1.621   3.987   3.019
 2492WAT      O 7877   5.181   1.761   3.819
 2492WAT     H1 7878   5.168   1.827   3.751
 2492WAT     H2 7879   5.266   1.722   3.798
 2493WAT      O 7880   4.639   3.150   1.782
 2493WAT     H1 7881   4.632   3.182   1.692
 2493WAT     H2 7882   4.701   3.077   1.778
 2494WAT      O 7883   7.029   2.578   0.000
 2494WAT     H1 7884   6.970   2.566   0.074
 2494WAT     H2 7885   6.972   2.608  -0.072
 2495WAT      O 7886   5.803   5.390   1.585
 2495WAT     H1 7887   5.870   5.427   1.528
 2495WAT     H2 7888   5.729   5.372   1.526
 2496WAT      O 7889   1.533   0.128   5.251
 2496WAT     H1 7890   1.614   0.082   5.228
 2496WAT     H2 7891   1.468   0.096   5.188
 2497WAT      O 7892   2.351   2.860   5.998
 2497WAT     H1 7893   2.305   2.777   6.005
 2497WAT     H2 7894   2.317   2.900   5.918
 2498WAT      O 7895   2.662   5.200   5.488
 2498WAT     H1 7896   2.744   5.162   5.521
 2498WAT     H2 7897   2.626   5.134   5.429
 2499WAT      O 7898   1.937   3.907   1.959
 2499WAT     H1 7899   1.984   3.961   2.023
 2499WAT     H2 7900   1.846   3.912   1.987
 2500WAT      O 7901   2.846   3.103   5.476
 2500WAT     H1 7902   2.778   3.161   5.509
 2500WAT     H2 7903   2.807   3.062   5.398
 2501WAT      O 7904   1.283   1.432   6.060
 2501WAT     H1 7905   1.200   1.480   6.056
 2501WAT     H2 7906   1.343   1.484   6.007
 2502WAT      O 7907   2.047   4.841   6.124
 2502WAT     H1 7908   1.996   4.835   6.205
 2502WAT     H2 7909   2.018   4.766   6.073
 2503WAT      O 7910   7.270   6.460   5.317
 2503WAT     H1 7911   7.197   6.479   5.258
 2503WAT     H2 7912   7.258   6.368   5.342
 2504WAT      O 7913   5.138   5.182   2.466
 2504WAT     H1 7914   5.048   5.213   2.453
 2504WAT     H2 7915   5.193   5.252   2.429
 2505WAT      O 7916   5.657   3.842   3.038
 2505WAT     H1 7917   5.648   3.925   2.992
 2505WAT     H2 7918   5.618   3.777   2.979
 2506WAT      O 7919   5.926   4.192   4.728
 2506WAT     H1 7920   5.940   4.120   4.666
 2506WAT     H2 7921   5.836   4.181   4.758
 2507WAT      O 7922   4.676   0.870   3.483
 2507WAT     H1 7923   4.643   0.954   3.515
 2507WAT     H2 7924   4.601   0.811   3.490
 2508WAT      O 7925   5.536   5.574   4.692
 2508WAT     H1 7926   5.447   5.572   4.657
 2508WAT     H2 7927   5.592   5.580   4.615
 2509WAT      O 7928   4.083   3.838   0.231
 2509WAT     H1 7929   4.130   3.906   0.182
 2509WAT     H2 7930   4.007   3.883   0.268
 2510WAT      O 7931   0.010   6.886   4.588
 2510WAT     H1 7932   0.044   6.928   4.509
 2510WAT     H2 7933   0.066   6.809   4.599
 2511WAT      O 7934   0.022   4.544   1.941
 2511WAT     H1 7935   0.115   4.522   1.941
 2511WAT     H2 7936  -0.007   4.525   1.851
 2512WAT      O 7937   1.940   4.241   0.216
 2512WAT     H1 7938   1.962   4.150   0.197
 2512WAT     H2 7939   1.889   4.237   0.297
 2513WAT      O 7940   4.694   3.287   4.596
 2513WAT     H1 7941   4.599   3.287   4.596
 2513WAT     H2 7942   4.718   3.372   4.557
 2514WAT      O 7943   3.204   0.259   4.987
 2514WAT     H1 7944   3.125   0.291   4.943
 2514WAT     H2 7945   3.256   0.218   4.918
 2515WAT      O 7946   0.735   0.463   3.879
 2515WAT     H1 7947   0.751   0.385   3.827
 2515WAT     H2 7948   0.668   0.511   3.831
 2516WAT      O 7949   3.666   0.552   3.080
 2516WAT     H1 7950   3.578   0.567   3.114
 2516WAT     H2 7951   3.710   0.501   3.147
 2517WAT      O 7952   0.667   1.123   5.094
 2517WAT     H1 7953   0.713   1.053   5.047
 2517WAT     H2 7954   0.576   1.094   5.096
 2518WAT      O 7955   1.640   6.833   1.672
 2518WAT     H1 7956   1.721   6.882   1.661
 2518WAT     H2 7957   1.603   6.865   1.754
 2519WAT      O 7958   0.754   0.479   4.865
 2519WAT     H1 7959   0.798   0.404   4.904
 2519WAT     H2 7960   0.716   0.445   4.784
 2520WAT      O 7961   0.024   2.443   1.152
 2520WAT     H1 7962  -0.006   2.352   1.148
 2520WAT     H2 7963  -0.057   2.495   1.155
 2521WAT      O 7964   6.069   1.018   5.289
 2521WAT     H1 7965   6.158   0.992   5.268
 2521WAT     H2 7966   6.051   0.977   5.374
 2522WAT      O 7967   0.722   4.591   2.655
 2522WAT     H1 7968   0.776   4.663   2.687
 2522WAT     H2 7969   0.734   4.592   2.560
 2523WAT      O 7970   7.350   2.927   4.909
 2523WAT     H1 7971   7.296   2.994   4.867
 2523WAT     H2 7972   7.432   2.971   4.929
 2524WAT      O 7973   0.438   6.767   0.939
 2524WAT     H1 7974   0.452   6.740   0.848
 2524WAT     H2 7975   0.516   6.818   0.960
 2525WAT      O 7976   5.306   1.674   2.493
 2525WAT     H1 7977   5.313   1.597   2.436
 2525WAT     H2 7978   5.234   1.725   2.456
 2526WAT      O 7979   0.605   0.013   5.638
 2526WAT     H1 7980   0.691   0.020   5.681
 2526WAT     H2 7981   0.590  -0.081   5.630
 2527WAT      O 7982   1.404   6.674   3.451
 2527WAT     H1 7983   1.353   6.753   3.434
 2527WAT     H2 7984   1.360   6.606   3.401
 2528WAT      O 7985   6.647   6.013   0.815
 2528WAT     H1 7986   6.597   6.031   0.895
 2528WAT     H2 7987   6.729   6.060   0.827
 2529WAT      O 7988   4.709   6.992   5.773
 2529WAT     H1 7989   4.729   7.079   5.741
 2529WAT     H2 7990   4.621   6.973   5.741
 2530WAT      O 7991   7.126   2.087   1.671
 2530WAT     H1 7992   7.050   2.142   1.691
 2530WAT     H2 7993   7.165   2.128   1.594
 2531WAT      O 7994   0.719   5.727   0.232
 2531WAT     H1 7995   0.658   5.653   0.234
 2531WAT     H2 7996   0.663   5.804   0.239
 2532WAT      O 7997   1.407   5.106   3.052
 2532WAT     H1 7998   1.500   5.092   3.072
 2532WAT     H2 7999   1.395   5.069   2.965
 2533WAT      O 8000   3.342   3.976   4.725
 2533WAT     H1 8001   3.334   4.052   4.783
 2533WAT     H2 8002   3.415   3.997   4.667
 2534WAT      O 8003   4.764   2.367   2.834
 2534WAT     H1 8004   4.851   2.392   2.863
 2534WAT     H2 8005   4.769   2.273   2.820
 2535WAT      O 8006   6.112   1.958   1.600
 2535WAT     H1 8007   6.030   1.915   1.624
 2535WAT     H2 8008   6.179   1.893   1.621
 2536WAT      O 8009   5.970   4.193   3.184
 2536WAT     H1 8010   5.921   4.272   3.161
 2536WAT     H2 8011   5.953   4.132   3.112
 2537WAT      O 8012   1.339   5.656   1.363
 2537WAT     H1 8013   1.272   5.599   1.326
 2537WAT     H2 8014   1.312   5.744   1.337
 2538WAT      O 8015   4.359   1.784   3.073
 2538WAT     H1 8016   4.271   1.751   3.091
 2538WAT     H2 8017   4.381   1.748   2.987
 2539WAT      O 8018   6.443   1.666   5.296
 2539WAT     H1 8019   6.534   1.694   5.303
 2539WAT     H2 8020   6.415   1.695   5.210
 2540WAT      O 8021   1.706   6.219   0.123
 2540WAT     H1 8022   1.616   6.252   0.126
 2540WAT     H2 8023   1.700   6.131   0.160
 2541WAT      O 8024   1.920   5.654   5.567
 2541WAT     H1 8025   1.969   5.626   5.644
 2541WAT     H2 8026   1.946   5.591   5.499
 2542WAT      O 8027   2.407   0.461   1.661
 2542WAT     H1 8028   2.316   0.434   1.643
 2542WAT     H2 8029   2.440   0.395   1.721
 2543WAT      O 8030   6.976   7.112   4.192
 2543WAT     H1 8031   7.013   7.149   4.112
 2543WAT     H2 8032   6.981   7.017   4.180
 2544WAT      O 8033   7.239   6.644   4.073
 2544WAT     H1 8034   7.304   6.617   4.008
 2544WAT     H2 8035   7.226   6.567   4.128
 2545WAT      O 8036   6.782   0.406   2.393
 2545WAT     H1 8037   6.790   0.374   2.303
 2545WAT     H2 8038   6.688   0.404   2.410
 2546WAT      O 8039   1.887   1.451   5.415
 2546WAT     H1 8040   1.946   1.376   5.413
 2546WAT     H2 8041   1.891   1.488   5.327
 2547WAT      O 8042   3.647   5.139   0.202
 2547WAT     H1 8043   3.616   5.228   0.219
 2547WAT     H2 8044   3.690   5.112   0.283
 2548WAT      O 8045   2.717   0.138   1.647
 2548WAT     H1 8046   2.624   0.140   1.626
 2548WAT     H2 8047   2.721   0.110   1.738
 2549WAT      O 8048   7.104   2.143   3.771
 2549WAT     H1 8049   7.158   2.081   3.722
 2549WAT     H2 8050   7.066   2.200   3.704
 2550WAT      O 8051   4.755   6.268   1.641
 2550WAT     H1 8052   4.690   6.324   1.598
 2550WAT     H2 8053   4.752   6.186   1.591
 2551WAT      O 8054   3.371   5.838   5.850
 2551WAT     H1 8055   3.463   5.865   5.846
 2551WAT     H2 8056   3.349   5.813   5.761
 2552WAT      O 8057   1.869   6.351   0.748
 2552WAT     H1 8058   1.784   6.394   0.749
 2552WAT     H2 8059   1.878   6.318   0.659
 2553WAT      O 8060   0.960   3.385   1.425
 2553WAT     H1 8061   0.957   3.467   1.374
 2553WAT     H2 8062   0.909   3.404   1.503
 2554WAT      O 8063   2.275   3.792   4.171
 2554WAT     H1 8064   2.295   3.822   4.083
 2554WAT     H2 8065   2.358   3.761   4.207
 2555WAT      O 8066   1.866   0.249   1.590
 2555WAT     H1 8067   1.930   0.200   1.538
 2555WAT     H2 8068   1.846   0.191   1.664
 2556WAT      O 8069   0.646   2.210   2.833
 2556WAT     H1 8070   0.613   2.222   2.922
 2556WAT     H2 8071   0.653   2.298   2.797
 2557WAT      O 8072   2.247   4.117   1.963
 2557WAT     H1 8073   2.182   4.123   2.032
 2557WAT     H2 8074   2.285   4.205   1.958
 2558WAT      O 8075   0.759   1.701   0.973
 2558WAT     H1 8076   0.798   1.622   0.934
 2558WAT     H2 8077   0.834   1.759   0.989
 2559WAT      O 8078   6.355   5.504   4.951
 2559WAT     H1 8079   6.279   5.539   4.906
 2559WAT     H2 8080   6.321   5.432   5.004
 2560WAT      O 8081   5.445   6.363   1.600
 2560WAT     H1 8082   5.487   6.339   1.518
 2560WAT     H2 8083   5.362   6.404   1.573
 2561WAT      O 8084   5.765   3.567   5.375
 2561WAT     H1 8085   5.773   3.480   5.336
 2561WAT     H2 8086   5.830   3.619   5.328
 2562WAT      O 8087   5.598   4.919   1.720
 2562WAT     H1 8088   5.520   4.863   1.718
 2562WAT     H2 8089   5.567   5.004   1.750
 2563WAT      O 8090   4.174   3.068   2.154
 2563WAT     H1 8091   4.121   3.123   2.213
 2563WAT     H2 8092   4.198   3.125   2.082
 2564WAT      O 8093   4.878   5.256   2.455
 2564WAT     H1 8094   4.849   5.342   2.425
 2564WAT     H2 8095   4.807   5.196   2.430
 2565WAT      O 8096   2.665   1.399   0.728
 2565WAT     H1 8097   2.715   1.454   0.668
 2565WAT     H2 8098   2.661   1.314   0.685
 2566WAT      O 8099   6.844   0.956   1.533
 2566WAT     H1 8100   6.785   0.888   1.500
 2566WAT     H2 8101   6.836   0.950   1.628
 2567WAT      O 8102   3.466   3.607   0.417
 2567WAT     H1 8103   3.518   3.556   0.355
 2567WAT     H2 8104   3.376   3.582   0.399
 2568WAT      O 8105   5.358   2.205   3.350
 2568WAT     H1 8106   5.384   2.145   3.279
 2568WAT     H2 8107   5.366   2.153   3.430
 2569WAT      O 8108   4.469   2.518   4.307
 2569WAT     H1 8109   4.520   2.437   4.305
 2569WAT     H2 8110   4.389   2.496   4.260
 2570WAT      O 8111   1.188   5.146   5.477
 2570WAT     H1 8112   1.101   5.184   5.477
 2570WAT     H2 8113   1.185   5.080   5.408
 2571WAT      O 8114   4.481   6.691   4.556
 2571WAT     H1 8115   4.575   6.705   4.545
 2571WAT     H2 8116   4.440   6.751   4.494
 2572WAT      O 8117   7.313   4.950   1.501
 2572WAT     H1 8118   7.303   4.899   1.421
 2572WAT     H2 8119   7.304   5.041   1.472
 2573WAT      O 8120   1.441   2.085   0.694
 2573WAT     H1 8121   1.442   2.005   0.640
 2573WAT     H2 8122   1.491   2.148   0.643
 2574WAT      O 8123   3.415   1.027   0.758
 2574WAT     H1 8124   3.325   1.038   0.728
 2574WAT     H2 8125   3.417   0.938   0.795
 2575WAT      O 8126   6.732   3.355   3.949
 2575WAT     H1 8127   6.647   3.343   3.907
 2575WAT     H2 8128   6.748   3.273   3.996
 2576WAT      O 8129   6.041   0.162   2.625
 2576WAT     H1 8130   6.102   0.089   2.636
 2576WAT     H2 8131   6.058   0.194   2.536
 2577WAT      O 8132   3.198   4.224   0.785
 2577WAT     H1 8133   3.270   4.245   0.726
 2577WAT     H2 8134   3.178   4.307   0.828
 2578WAT      O 8135   5.652   3.201   0.111
 2578WAT     H1 8136   5.697   3.221   0.194
 2578WAT     H2 8137   5.628   3.109   0.118
 2579WAT      O 8138   4.594   1.608   3.826
 2579WAT     H1 8139   4.650   1.627   3.751
 2579WAT     H2 8140   4.528   1.677   3.825
 2580WAT      O 8141   4.042   6.867   5.725
 2580WAT     H1 8142   4.123   6.819   5.743
 2580WAT     H2 8143   3.994   6.811   5.664
 2581WAT      O 8144   6.897   6.228   4.012
 2581WAT     H1 8145   6.829   6.204   4.075
 2581WAT     H2 8146   6.849   6.256   3.934
 2582WAT      O 8147   3.324   4.789   1.975
 2582WAT     H1 8148   3.239   4.765   1.939
 2582WAT     H2 8149   3.329   4.745   2.059
 2583WAT      O 8150   7.027   6.896   1.647
 2583WAT     H1 8151   6.962   6.927   1.584
 2583WAT     H2 8152   7.070   6.976   1.678
 2584WAT      O 8153   1.827   2.947   1.824
 2584WAT     H1 8154   1.827   2.893   1.903
 2584WAT     H2 8155   1.812   2.886   1.752
 2585WAT      O 8156   0.399   0.954   5.726
 2585WAT     H1 8157   0.308   0.984   5.728
 2585WAT     H2 8158   0.442   1.013   5.664
 2586WAT      O 8159   1.370   1.755   3.896
 2586WAT     H1 8160   1.450   1.784   3.853
 2586WAT     H2 8161   1.389   1.666   3.925
 2587WAT      O 8162   2.257   6.397   1.882
 2587WAT     H1 8163   2.338   6.364   1.921
 2587WAT     H2 8164   2.281   6.482   1.845
 2588WAT      O 8165   5.520   1.774   2.599
 2588WAT     H1 8166   5.501   1.833   2.672
 2588WAT     H2 8167   5.436   1.734   2.578
 2589WAT      O 8168   2.501   6.306   1.998
 2589WAT     H1 8169   2.548   6.388   1.984
 2589WAT     H2 8170   2.552   6.260   2.064
 2590WAT      O 8171   7.229   1.883   2.203
 2590WAT     H1 8172   7.235   1.977   2.222
 2590WAT     H2 8173   7.202   1.843   2.285
 2591WAT      O 8174   4.190   6.045   5.769
 2591WAT     H1 8175   4.236   6.112   5.820
 2591WAT     H2 8176   4.257   5.980   5.749
 2592WAT      O 8177   1.767   1.412   0.614
 2592WAT     H1 8178   1.677   1.399   0.583
 2592WAT     H2 8179   1.818   1.425   0.534
 2593WAT      O 8180   5.519   5.212   4.863
 2593WAT     H1 8181   5.561   5.155   4.798
 2593WAT     H2 8182   5.431   5.226   4.829
 2594WAT      O 8183   4.200   5.974   6.116
 2594WAT     H1 8184   4.259   6.041   6.083
 2594WAT     H2 8185   4.191   5.911   6.044
 2595WAT      O 8186   1.459   2.072   1.589
 2595WAT     H1 8187   1.372   2.085   1.550
 2595WAT     H2 8188   1.445   2.005   1.655
 2596WAT      O 8189   0.704   5.862   5.027
 2596WAT     H1 8190   0.660   5.947   5.016
 2596WAT     H2 8191   0.632   5.800   5.043
 2597WAT      O 8192   2.100   6.764   1.497
 2597WAT     H1 8193   2.143   6.735   1.416
 2597WAT     H2 8194   2.163   6.823   1.538
 2598WAT      O 8195   0.369   0.032   5.833
 2598WAT     H1 8196   0.445   0.029   5.775
 2598WAT     H2 8197   0.299  -0.011   5.784
 2599WAT      O 8198   1.289   0.117   1.693
 2599WAT     H1 8199   1.199   0.085   1.690
 2599WAT     H2 8200   1.287   0.199   1.643
 2600WAT      O 8201   0.546   1.019   0.059
 2600WAT     H1 8202   0.505   1.032  -0.026
 2600WAT     H2 8203   0.603   0.944   0.048
 2601WAT      O 8204   3.275   2.985   4.770
 2601WAT     H1 8205   3.179   2.983   4.773
 2601WAT     H2 8206   3.297   2.956   4.681
 2602WAT      O 8207   7.259   6.828   2.344
 2602WAT     H1 8208   7.169   6.833   2.376
 2602WAT     H2 8209   7.264   6.894   2.275
 2603WAT      O 8210   2.666   0.367   0.410
 2603WAT     H1 8211   2.714   0.372   0.492
 2603WAT     H2 8212   2.579   0.403   0.430
 2604WAT      O 8213   4.953   5.452   3.500
 2604WAT     H1 8214   4.935   5.546   3.488
 2604WAT     H2 8215   4.964   5.418   3.412
 2605WAT      O 8216   3.158   5.673   3.105
 2605WAT     H1 8217   3.157   5.642   3.014
 2605WAT     H2 8218   3.206   5.605   3.153
 2606WAT      O 8219   1.330   2.759   4.552
 2606WAT     H1 8220   1.415   2.768   4.596
 2606WAT     H2 8221   1.350   2.709   4.472
 2607WAT      O 8222   6.591   5.057   5.372
 2607WAT     H1 8223   6.605   5.136   5.320
 2607WAT     H2 8224   6.669   5.049   5.427
 2608WAT      O 8225   4.698   6.793   5.355
 2608WAT     H1 8226   4.769   6.840   5.397
 2608WAT     H2 8227   4.711   6.702   5.381
 2609WAT      O 8228   5.670   6.750   2.095
 2609WAT     H1 8229   5.717   6.824   2.056
 2609WAT     H2 8230   5.630   6.786   2.174
 2610WAT      O 8231   7.240   6.596   2.854
 2610WAT     H1 8232   7.160   6.570   2.808
 2610WAT     H2 8233   7.270   6.674   2.807
 2611WAT      O 8234   3.261   1.277   3.592
 2611WAT     H1 8235   3.341   1.305   3.547
 2611WAT     H2 8236   3.229   1.202   3.541
 2612WAT      O 8237   1.278   5.083   0.115
 2612WAT     H1 8238   1.222   5.148   0.157
 2612WAT     H2 8239   1.218   5.030   0.062
 2613WAT      O 8240   0.532   4.417   0.015
 2613WAT     H1 8241   0.549   4.324   0.029
 2613WAT     H2 8242   0.446   4.432   0.055
 2614WAT      O 8243   1.433   6.050   2.619
 2614WAT     H1 8244   1.418   5.973   2.564
 2614WAT     H2 8245   1.488   6.108   2.566
 2615WAT      O 8246   3.754   2.623   2.270
 2615WAT     H1 8247   3.693   2.563   2.313
 2615WAT     H2 8248   3.738   2.611   2.177
 2616WAT      O 8249   4.218   0.387   5.092
 2616WAT     H1 8250   4.186   0.319   5.033
 2616WAT     H2 8251   4.272   0.444   5.037
 2617WAT      O 8252   0.930   3.644   0.418
 2617WAT     H1 8253   0.932   3.692   0.335
 2617WAT     H2 8254   0.911   3.554   0.394
 2618WAT      O 8255   1.213   2.700   4.805
 2618WAT     H1 8256   1.199   2.612   4.768
 2618WAT     H2 8257   1.270   2.743   4.741
 2619WAT      O 8258   3.358   6.807   4.372
 2619WAT     H1 8259   3.279   6.779   4.325
 2619WAT     H2 8260   3.430   6.773   4.320
 2620WAT      O 8261   5.817   5.054   1.620
 2620WAT     H1 8262   5.738   5.095   1.656
 2620WAT     H2 8263   5.817   5.080   1.527
 2621WAT      O 8264   3.429   1.729   3.157
 2621WAT     H1 8265   3.353   1.671   3.152
 2621WAT     H2 8266   3.482   1.707   3.081
 2622WAT      O 8267   3.232   6.128   2.323
 2622WAT     H1 8268   3.172   6.197   2.296
 2622WAT     H2 8269   3.227   6.064   2.252
 2623WAT      O 8270   6.800   5.935   1.437
 2623WAT     H1 8271   6.810   5.844   1.462
 2623WAT     H2 8272   6.749   5.974   1.508
 2624WAT      O 8273   6.324   7.082   3.602
 2624WAT     H1 8274   6.333   7.140   3.527
 2624WAT     H2 8275   6.371   7.002   3.576
 2625WAT      O 8276   1.277   6.112   3.478
 2625WAT     H1 8277   1.261   6.125   3.571
 2625WAT     H2 8278   1.282   6.017   3.468
 2626WAT      O 8279   5.177   5.786   1.962
 2626WAT     H1 8280   5.233   5.719   1.923
 2626WAT     H2 8281   5.235   5.861   1.975
 2627WAT      O 8282   4.300   1.079   5.673
 2627WAT     H1 8283   4.251   1.143   5.621
 2627WAT     H2 8284   4.370   1.049   5.615
 2628WAT      O 8285   3.240   4.850   5.129
 2628WAT     H1 8286   3.169   4.826   5.070
 2628WAT     H2 8287   3.314   4.795   5.102
 2629WAT      O 8288   1.058   0.082   5.153
 2629WAT     H1 8289   1.106   0.103   5.233
 2629WAT     H2 8290   1.121   0.096   5.082
 2630WAT      O 8291   5.354   7.190   6.040
 2630WAT     H1 8292   5.410   7.114   6.026
 2630WAT     H2 8293   5.334   7.222   5.951
 2631WAT      O 8294   2.497   5.386   2.507
 2631WAT     H1 8295   2.450   5.364   2.588
 2631WAT     H2 8296   2.435   5.437   2.456
 2632WAT      O 8297   3.442   1.609   0.162
 2632WAT     H1 8298   3.439   1.573   0.073
 2632WAT     H2 8299   3.351   1.633   0.181
 2633WAT      O 8300   5.094   1.991   4.857
 2633WAT     H1 8301   5.044   1.914   4.886
 2633WAT     H2 8302   5.034   2.064   4.871
 2634WAT      O 8303   4.301   2.861   3.794
 2634WAT     H1 8304   4.353   2.913   3.733
 2634WAT     H2 8305   4.269   2.787   3.741
 2635WAT      O 8306   4.764   6.726   2.434
 2635WAT     H1 8307   4.773   6.820   2.449
 2635WAT     H2 8308   4.854   6.695   2.420
 2636WAT      O 8309   4.025   1.053   3.653
 2636WAT     H1 8310   3.956   1.118   3.661
 2636WAT     H2 8311   4.096   1.098   3.606
 2637WAT      O 8312   6.361   5.867   0.113
 2637WAT     H1 8313   6.393   5.835   0.028
 2637WAT     H2 8314   6.396   5.956   0.119
 2638WAT      O 8315   3.655   6.060   1.790
 2638WAT     H1 8316   3.594   6.133   1.784
 2638WAT     H2 8317   3.613   5.999   1.851
 2639WAT      O 8318   1.043   3.200   5.470
 2639WAT     H1 8319   1.065   3.270   5.531
 2639WAT     H2 8320   0.950   3.184   5.485
 2640WAT      O 8321   1.088   3.858   5.055
 2640WAT     H1 8322   1.151   3.878   4.985
 2640WAT     H2 8323   1.038   3.784   5.023
 2641WAT      O 8324   3.132   0.126   0.526
 2641WAT     H1 8325   3.129   0.186   0.601
 2641WAT     H2 8326   3.220   0.136   0.491
 2642WAT      O 8327   0.295   3.411   0.493
 2642WAT     H1 8328   0.369   3.393   0.550
 2642WAT     H2 8329   0.334   3.432   0.408
 2643WAT      O 8330   3.324   3.153   1.996
 2643WAT     H1 8331   3.372   3.081   1.956
 2643WAT     H2 8332   3.270   3.188   1.926
 2644WAT      O 8333   1.517   2.713   1.942
 2644WAT     H1 8334   1.452   2.643   1.940
 2644WAT     H2 8335   1.481   2.780   1.883
 2645WAT      O 8336   0.851   1.123   3.500
 2645WAT     H1 8337   0.866   1.195   3.562
 2645WAT     H2 8338   0.874   1.160   3.415
 2646WAT      O 8339   0.007   4.436   4.167
 2646WAT     H1 8340   0.013   4.342   4.183
 2646WAT     H2 8341   0.088   4.458   4.121
 2647WAT      O 8342   5.551   5.466   2.155
 2647WAT     H1 8343   5.630   5.415   2.140
 2647WAT     H2 8344   5.548   5.528   2.082
 2648WAT      O 8345   3.491   4.627   4.641
 2648WAT     H1 8346   3.466   4.613   4.550
 2648WAT     H2 8347   3.563   4.566   4.656
 2649WAT      O 8348   2.023   6.835   1.798
 2649WAT     H1 8349   2.076   6.887   1.859
 2649WAT     H2 8350   2.086   6.797   1.737
 2650WAT      O 8351   4.828   7.170   2.253
 2650WAT     H1 8352   4.823   7.097   2.192
 2650WAT     H2 8353   4.839   7.129   2.339
 2651WAT      O 8354   4.644   5.500   3.425
 2651WAT     H1 8355   4.576   5.522   3.360
 2651WAT     H2 8356   4.695   5.580   3.434
 2652WAT      O 8357   2.002   7.040   1.265
 2652WAT     H1 8358   1.979   7.132   1.272
 2652WAT     H2 8359   2.064   7.036   1.192
 2653WAT      O 8360   7.032   1.322   5.179
 2653WAT     H1 8361   7.039   1.263   5.254
 2653WAT     H2 8362   6.951   1.296   5.136
 2654WAT      O 8363   5.653   0.683   2.373
 2654WAT     H1 8364   5.723   0.740   2.341
 2654WAT     H2 8365   5.572   0.724   2.342
 2655WAT      O 8366   4.508   3.667   3.200
 2655WAT     H1 8367   4.446   3.628   3.262
 2655WAT     H2 8368   4.471   3.753   3.179
 2656WAT      O 8369   5.842   0.641   0.261
 2656WAT     H1 8370   5.823   0.550   0.240
 2656WAT     H2 8371   5.758   0.678   0.288
 2657WAT      O 8372   1.639   0.279   1.405
 2657WAT     H1 8373   1.618   0.186   1.414
 2657WAT     H2 8374   1.617   0.300   1.314
 2658WAT      O 8375   2.019   4.498   2.802
 2658WAT     H1 8376   2.050   4.557   2.734
 2658WAT     H2 8377   2.041   4.410   2.768
 2659WAT      O 8378   5.546   3.958   1.170
 2659WAT     H1 8379   5.471   4.007   1.137
 2659WAT     H2 8380   5.542   3.874   1.124
 2660WAT      O 8381   2.737   3.843   5.696
 2660WAT     H1 8382   2.734   3.780   5.624
 2660WAT     H2 8383   2.676   3.912   5.669
 2661WAT      O 8384   6.004   3.626   5.688
 2661WAT     H1 8385   5.985   3.670   5.606
 2661WAT     H2 8386   5.924   3.636   5.740
 2662WAT      O 8387   0.135   6.591   2.847
 2662WAT     H1 8388   0.211   6.609   2.792
 2662WAT     H2 8389   0.145   6.649   2.922
 2663WAT      O 8390   2.598   1.198   1.088
 2663WAT     H1 8391   2.586   1.286   1.052
 2663WAT     H2 8392   2.634   1.147   1.016
 2664WAT      O 8393   2.188   2.294   2.171
 2664WAT     H1 8394   2.158   2.232   2.105
 2664WAT     H2 8395   2.198   2.376   2.123
 2665WAT      O 8396   3.464   2.381   5.940
 2665WAT     H1 8397   3.425   2.337   5.865
 2665WAT     H2 8398   3.529   2.440   5.903
 2666WAT      O 8399   0.791   4.640   3.302
 2666WAT     H1 8400   0.744   4.670   3.225
 2666WAT     H2 8401   0.829   4.720   3.339
 2667WAT      O 8402   3.796   0.924   0.531
 2667WAT     H1 8403   3.774   0.906   0.440
 2667WAT     H2 8404   3.771   1.016   0.544
 2668WAT      O 8405   3.611   0.144   2.525
 2668WAT     H1 8406   3.517   0.135   2.505
 2668WAT     H2 8407   3.626   0.239   2.525
 2669WAT      O 8408   4.248   5.985   0.650
 2669WAT     H1 8409   4.320   5.976   0.588
 2669WAT     H2 8410   4.191   6.052   0.612
 2670WAT      O 8411   2.872   3.495   4.310
 2670WAT     H1 8412   2.870   3.407   4.273
 2670WAT     H2 8413   2.956   3.531   4.280
 2671WAT      O 8414   2.325   2.526   4.491
 2671WAT     H1 8415   2.242   2.529   4.444
 2671WAT     H2 8416   2.378   2.464   4.443
 2672WAT      O 8417   1.583   1.607   0.850
 2672WAT     H1 8418   1.501   1.565   0.823
 2672WAT     H2 8419   1.644   1.589   0.779
 2673WAT      O 8420   7.091   6.370   5.072
 2673WAT     H1 8421   7.026   6.384   5.003
 2673WAT     H2 8422   7.156   6.438   5.057
 2674WAT      O 8423   1.154   4.435   3.187
 2674WAT     H1 8424   1.202   4.492   3.248
 2674WAT     H2 8425   1.160   4.348   3.226
 2675WAT      O 8426   1.121   7.143   1.762
 2675WAT     H1 8427   1.173   7.065   1.777
 2675WAT     H2 8428   1.134   7.163   1.669
 2676WAT      O 8429   2.301   6.426   2.182
 2676WAT     H1 8430   2.283   6.408   2.090
 2676WAT     H2 8431   2.384   6.382   2.198
 2677WAT      O 8432   2.294   0.311   5.923
 2677WAT     H1 8433   2.203   0.319   5.893
 2677WAT     H2 8434   2.321   0.223   5.895
 2678WAT      O 8435   7.593   2.041   4.013
 2678WAT     H1 8436   7.559   2.077   3.931
 2678WAT     H2 8437   7.619   2.117   4.064
 2679WAT      O 8438   6.865   6.299   2.290
 2679WAT     H1 8439   6.783   6.272   2.249
 2679WAT     H2 8440   6.933   6.259   2.236
 2680WAT      O 8441   1.771   5.842   1.500
 2680WAT     H1 8442   1.679   5.870   1.500
 2680WAT     H2 8443   1.766   5.746   1.509
 2681WAT      O 8444   5.568   3.571   2.122
 2681WAT     H1 8445   5.474   3.586   2.131
 2681WAT     H2 8446   5.604   3.658   2.101
 2682WAT      O 8447   5.289   6.677   1.571
 2682WAT     H1 8448   5.265   6.697   1.481
 2682WAT     H2 8449   5.287   6.582   1.577
 2683WAT      O 8450   5.511   3.610   0.535
 2683WAT     H1 8451   5.605   3.626   0.542
 2683WAT     H2 8452   5.503   3.540   0.470
 2684WAT      O 8453   2.568   1.476   0.216
 2684WAT     H1 8454   2.477   1.460   0.190
 2684WAT     H2 8455   2.581   1.569   0.201
 2685WAT      O 8456   4.043   1.500   0.813
 2685WAT     H1 8457   4.042   1.487   0.907
 2685WAT     H2 8458   4.132   1.479   0.786
 2686WAT      O 8459   0.780   2.664   5.653
 2686WAT     H1 8460   0.827   2.584   5.677
 2686WAT     H2 8461   0.844   2.716   5.604
 2687WAT      O 8462   6.963   2.616   3.040
 2687WAT     H1 8463   6.904   2.691   3.029
 2687WAT     H2 8464   7.051   2.654   3.038
 2688WAT      O 8465   0.997   1.556   5.994
 2688WAT     H1 8466   1.015   1.597   6.079
 2688WAT     H2 8467   1.010   1.626   5.930
 2689WAT      O 8468   1.675   4.927   0.450
 2689WAT     H1 8469   1.676   4.979   0.530
 2689WAT     H2 8470   1.672   4.991   0.379
 2690WAT      O 8471   6.144   3.102   5.450
 2690WAT     H1 8472   6.204   3.174   5.471
 2690WAT     H2 8473   6.112   3.122   5.362
 2691WAT      O 8474   7.038   5.502   0.195
 2691WAT     H1 8475   6.947   5.508   0.168
 2691WAT     H2 8476   7.087   5.547   0.127
 2692WAT      O 8477   0.986   3.911   1.835
 2692WAT     H1 8478   0.995   3.826   1.879
 2692WAT     H2 8479   0.899   3.942   1.861
 2693WAT      O 8480   0.296   2.730   3.972
 2693WAT     H1 8481   0.326   2.809   3.926
 2693WAT     H2 8482   0.210   2.713   3.935
 2694WAT      O 8483   5.139   1.869   5.380
 2694WAT     H1 8484   5.179   1.950   5.413
 2694WAT     H2 8485   5.059   1.898   5.336
 2695WAT      O 8486   1.838   3.703   2.140
 2695WAT     H1 8487   1.888   3.711   2.221
 2695WAT     H2 8488   1.898   3.661   2.079
 2696WAT      O 8489   5.463   6.800   3.395
 2696WAT     H1 8490   5.489   6.862   3.463
 2696WAT     H2 8491   5.532   6.734   3.395
 2697WAT      O 8492   4.705   3.051   0.945
 2697WAT     H1 8493   4.725   3.106   0.869
 2697WAT     H2 8494   4.753   3.091   1.017
 2698WAT      O 8495   3.282   5.040   0.707
 2698WAT     H1 8496   3.300   5.097   0.632
 2698WAT     H2 8497   3.219   5.090   0.760
 2699WAT      O 8498   1.475   1.619   0.331
 2699WAT     H1 8499   1.382   1.607   0.311
 2699WAT     H2 8500   1.507   1.677   0.262
 2700WAT      O 8501   5.177   5.582   0.850
 2700WAT     H1 8502   5.228   5.527   0.791
 2700WAT     H2 8503   5.092   5.591   0.807
 2701WAT      O 8504   3.564   6.631   4.271
 2701WAT     H1 8505   3.588   6.635   4.178
 2701WAT     H2 8506   3.573   6.538   4.294
 2702WAT      O 8507   6.540   4.609   0.017
 2702WAT     H1 8508   6.600   4.604  -0.057
 2702WAT     H2 8509   6.485   4.530   0.009
 2703WAT      O 8510   0.392   2.828   4.738
 2703WAT     H1 8511   0.484   2.841   4.718
 2703WAT     H2 8512   0.360   2.768   4.670
 2704WAT      O 8513   0.282   4.442   1.418
 2704WAT     H1 8514   0.257   4.406   1.333
 2704WAT     H2 8515   0.346   4.509   1.397
 2705WAT      O 8516   2.896   6.606   4.966
 2705WAT     H1 8517   2.874   6.594   4.873
 2705WAT     H2 8518   2.921   6.519   4.996
 2706WAT      O 8519   6.342   4.958   1.598
 2706WAT     H1 8520   6.406   4.887   1.610
 2706WAT     H2 8521   6.390   5.037   1.625
 2707WAT      O 8522   7.349   5.788   0.185
 2707WAT     H1 8523   7.332   5.772   0.092
 2707WAT     H2 8524   7.265   5.821   0.218
 2708WAT      O 8525   5.756   4.159   1.540
 2708WAT     H1 8526   5.816   4.118   1.602
 2708WAT     H2 8527   5.720   4.234   1.588
 2709WAT      O 8528   4.375   1.792   3.824
 2709WAT     H1 8529   4.290   1.789   3.867
 2709WAT     H2 8530   4.375   1.875   3.775
 2710WAT      O 8531   3.398   4.286   0.582
 2710WAT     H1 8532   3.401   4.315   0.491
 2710WAT     H2 8533   3.462   4.216   0.588
 2711WAT      O 8534   0.145   6.531   1.354
 2711WAT     H1 8535   0.181   6.593   1.291
 2711WAT     H2 8536   0.051   6.549   1.354
 2712WAT      O 8537   4.573   5.011   5.626
 2712WAT     H1 8538   4.492   5.061   5.638
 2712WAT     H2 8539   4.546   4.934   5.575
 2713WAT      O 8540   2.816   6.226   5.691
 2713WAT     H1 8541   2.792   6.153   5.634
 2713WAT     H2 8542   2.909   6.213   5.708
 2714WAT      O 8543   4.114   4.770   1.199
 2714WAT     H1 8544   4.166   4.753   1.120
 2714WAT     H2 8545   4.043   4.827   1.169
 2715WAT      O 8546   4.186   6.238   2.766
 2715WAT     H1 8547   4.184   6.289   2.846
 2715WAT     H2 8548   4.094   6.224   2.744
 2716WAT      O 8549   3.416   2.173   2.097
 2716WAT     H1 8550   3.463   2.166   2.181
 2716WAT     H2 8551   3.443   2.095   2.048
 2717WAT      O 8552   0.009   1.586   1.499
 2717WAT     H1 8553  -0.050   1.570   1.572
 2717WAT     H2 8554   0.087   1.624   1.540
 2718WAT      O 8555   3.796   3.694   1.663
 2718WAT     H1 8556   3.750   3.774   1.689
 2718WAT     H2 8557   3.802   3.643   1.744
 2719WAT      O 8558   7.189   0.963   0.989
 2719WAT     H1 8559   7.178   0.958   0.894
 2719WAT     H2 8560   7.101   0.980   1.022
 2720WAT      O 8561   2.381   4.286   0.999
 2720WAT     H1 8562   2.299   4.301   0.952
 2720WAT     H2 8563   2.380   4.192   1.019
 2721WAT      O 8564   2.031   4.218   2.766
 2721WAT     H1 8565   2.066   4.143   2.719
 2721WAT     H2 8566   2.102   4.246   2.824
 2722WAT      O 8567   1.236   2.734   2.344
 2722WAT     H1 8568   1.315   2.714   2.294
 2722WAT     H2 8569   1.227   2.829   2.338
 2723WAT      O 8570   5.443   7.155   2.308
 2723WAT     H1 8571   5.421   7.126   2.220
 2723WAT     H2 8572   5.433   7.250   2.306
 2724WAT      O 8573   1.541   4.251   4.555
 2724WAT     H1 8574   1.538   4.341   4.522
 2724WAT     H2 8575   1.601   4.206   4.496
 2725WAT      O 8576   5.987   6.519   0.955
 2725WAT     H1 8577   5.909   6.573   0.969
 2725WAT     H2 8578   5.988   6.501   0.861
 2726WAT      O 8579   1.425   3.159   3.774
 2726WAT     H1 8580   1.448   3.072   3.742
 2726WAT     H2 8581   1.497   3.182   3.833
 2727WAT      O 8582   4.394   1.664   3.370
 2727WAT     H1 8583   4.339   1.726   3.417
 2727WAT     H2 8584   4.393   1.694   3.279
 2728WAT      O 8585   0.261   6.654   1.613
 2728WAT     H1 8586   0.208   6.618   1.542
 2728WAT     H2 8587   0.305   6.577   1.650
 2729WAT      O 8588   2.157   7.115   6.083
 2729WAT     H1 8589   2.197   7.103   5.996
 2729WAT     H2 8590   2.101   7.191   6.073
 2730WAT      O 8591   5.893   4.762   0.425
 2730WAT     H1 8592   5.896   4.843   0.373
 2730WAT     H2 8593   5.984   4.742   0.444
 2731WAT      O 8594   3.830   5.147   2.438
 2731WAT     H1 8595   3.865   5.212   2.377
 2731WAT     H2 8596   3.746   5.121   2.400
 2732WAT      O 8597   2.384   1.196   4.623
 2732WAT     H1 8598   2.335   1.192   4.705
 2732WAT     H2 8599   2.414   1.287   4.619
 2733WAT      O 8600   4.318   1.438   2.660
 2733WAT     H1 8601   4.266   1.471   2.586
 2733WAT     H2 8602   4.255   1.394   2.716
 2734WAT      O 8603   7.291   6.537   0.536
 2734WAT     H1 8604   7.362   6.516   0.597
 2734WAT     H2 8605   7.259   6.623   0.565
 2735WAT      O 8606   6.607   6.980   5.197
 2735WAT     H1 8607   6.619   7.016   5.109
 2735WAT     H2 8608   6.571   6.893   5.182
 2736WAT      O 8609   2.308   4.171   5.025
 2736WAT     H1 8610   2.289   4.160   4.932
 2736WAT     H2 8611   2.341   4.086   5.054
 2737WAT      O 8612   4.853   6.715   6.229
 2737WAT     H1 8613   4.851   6.751   6.318
 2737WAT     H2 8614   4.788   6.766   6.181
 2738WAT      O 8615   0.192   6.833   2.984
 2738WAT     H1 8616   0.239   6.916   2.985
 2738WAT     H2 8617   0.126   6.842   3.053
 2739WAT      O 8618   1.589   4.751   2.981
 2739WAT     H1 8619   1.631   4.837   2.974
 2739WAT     H2 8620   1.643   4.693   2.927
 2740WAT      O 8621   3.262   5.396   3.484
 2740WAT     H1 8622   3.285   5.305   3.502
 2740WAT     H2 8623   3.169   5.393   3.458
 2741WAT      O 8624   6.804   0.259   2.178
 2741WAT     H1 8625   6.791   0.289   2.088
 2741WAT     H2 8626   6.846   0.174   2.169
 2742WAT      O 8627   5.351   6.967   3.216
 2742WAT     H1 8628   5.393   6.906   3.277
 2742WAT     H2 8629   5.257   6.953   3.231
 2743WAT      O 8630   2.846   6.730   2.982
 2743WAT     H1 8631   2.865   6.811   2.936
 2743WAT     H2 8632   2.901   6.664   2.939
 2744WAT      O 8633   2.805   5.585   6.052
 2744WAT     H1 8634   2.842   5.496   6.052
 2744WAT     H2 8635   2.779   5.600   5.962
 2745WAT      O 8636   3.730   1.306   3.142
 2745WAT     H1 8637   3.749   1.382   3.087
 2745WAT     H2 8638   3.644   1.324   3.180
 2746WAT      O 8639   3.679   2.242   2.519
 2746WAT     H1 8640   3.768   2.270   2.497
 2746WAT     H2 8641   3.691   2.174   2.586
 2747WAT      O 8642   5.958   1.356   2.051
 2747WAT     H1 8643   5.888   1.296   2.078
 2747WAT     H2 8644   5.979   1.405   2.130
 2748WAT      O 8645   2.708   5.249   4.404
 2748WAT     H1 8646   2.751   5.232   4.320
 2748WAT     H2 8647   2.696   5.344   4.406
 2749WAT      O 8648   0.708   5.781   2.681
 2749WAT     H1 8649   0.777   5.719   2.705
 2749WAT     H2 8650   0.733   5.813   2.595
 2750WAT      O 8651   3.790   2.658   2.767
 2750WAT     H1 8652   3.732   2.656   2.843
 2750WAT     H2 8653   3.819   2.749   2.762
 2751WAT      O 8654   3.875   3.320   2.688
 2751WAT     H1 8655   3.897   3.406   2.724
 2751WAT     H2 8656   3.959   3.283   2.662
 2752WAT      O 8657   1.835   3.210   1.796
 2752WAT     H1 8658   1.852   3.246   1.883
 2752WAT     H2 8659   1.826   3.116   1.810
 2753WAT      O 8660   5.112   1.731   4.096
 2753WAT     H1 8661   5.087   1.721   4.004
 2753WAT     H2 8662   5.206   1.747   4.094
 2754WAT      O 8663   7.177   0.922   5.425
 2754WAT     H1 8664   7.183   0.931   5.330
 2754WAT     H2 8665   7.088   0.891   5.441
 2755WAT      O 8666   2.939   6.111   4.553
 2755WAT     H1 8667   3.017   6.159   4.525
 2755WAT     H2 8668   2.870   6.177   4.558
 2756WAT      O 8669   0.228   3.824   0.147
 2756WAT     H1 8670   0.299   3.843   0.208
 2756WAT     H2 8671   0.149   3.821   0.202
 2757WAT      O 8672   6.288   5.756   2.827
 2757WAT     H1 8673   6.367   5.739   2.775
 2757WAT     H2 8674   6.239   5.820   2.775
 2758WAT      O 8675   0.543   2.708   3.241
 2758WAT     H1 8676   0.629   2.676   3.266
 2758WAT     H2 8677   0.521   2.659   3.161
 2759WAT      O 8678   1.053   4.682   5.938
 2759WAT     H1 8679   1.119   4.687   5.869
 2759WAT     H2 8680   0.989   4.618   5.906
 2760WAT      O 8681   5.820   1.698   2.238
 2760WAT     H1 8682   5.743   1.682   2.292
 2760WAT     H2 8683   5.788   1.692   2.148
 2761WAT      O 8684   7.243   1.022   1.608
 2761WAT     H1 8685   7.291   1.013   1.690
 2761WAT     H2 8686   7.301   1.073   1.551
 2762WAT      O 8687   3.920   7.141   4.864
 2762WAT     H1 8688   3.961   7.058   4.885
 2762WAT     H2 8689   3.877   7.126   4.780
 2763WAT      O 8690   2.693   2.066   4.079
 2763WAT     H1 8691   2.652   2.040   3.996
 2763WAT     H2 8692   2.641   2.022   4.146
 2764WAT      O 8693   4.610   2.699   4.808
 2764WAT     H1 8694   4.556   2.638   4.758
 2764WAT     H2 8695   4.699   2.684   4.776
 2765WAT      O 8696   7.418   5.866   0.579
 2765WAT     H1 8697   7.344   5.890   0.523
 2765WAT     H2 8698   7.439   5.776   0.554
 2766WAT      O 8699   4.539   5.898   1.251
 2766WAT     H1 8700   4.493   5.903   1.335
 2766WAT     H2 8701   4.527   5.807   1.222
 2767WAT      O 8702   1.135   1.790   2.178
 2767WAT     H1 8703   1.134   1.733   2.101
 2767WAT     H2 8704   1.218   1.836   2.173
 2768WAT      O 8705   2.329   1.438   1.254
 2768WAT     H1 8706   2.339   1.379   1.329
 2768WAT     H2 8707   2.408   1.492   1.255
 2769WAT      O 8708   5.686   1.147   4.531
 2769WAT     H1 8709   5.747   1.178   4.464
 2769WAT     H2 8710   5.675   1.222   4.590
 2770WAT      O 8711   5.198   0.354   0.273
 2770WAT     H1 8712   5.176   0.427   0.214
 2770WAT     H2 8713   5.241   0.290   0.216
 2771WAT      O 8714   2.037   2.361   0.239
 2771WAT     H1 8715   2.108   2.350   0.303
 2771WAT     H2 8716   1.980   2.429   0.278
 2772WAT      O 8717   6.282   0.571   0.235
 2772WAT     H1 8718   6.234   0.490   0.249
 2772WAT     H2 8719   6.238   0.635   0.292
 2773WAT      O 8720   2.410   1.101   5.038
 2773WAT     H1 8721   2.340   1.036   5.033
 2773WAT     H2 8722   2.487   1.056   5.002
 2774WAT      O 8723   3.461   5.445   3.731
 2774WAT     H1 8724   3.535   5.447   3.791
 2774WAT     H2 8725   3.448   5.352   3.711
 2775WAT      O 8726   7.101   2.523   0.651
 2775WAT     H1 8727   7.072   2.600   0.699
 2775WAT     H2 8728   7.164   2.556   0.587
 2776WAT      O 8729   0.910   4.879   5.640
 2776WAT     H1 8730   0.965   4.802   5.659
 2776WAT     H2 8731   0.821   4.847   5.650
 2777WAT      O 8732   3.125   4.877   0.420
 2777WAT     H1 8733   3.154   4.852   0.508
 2777WAT     H2 8734   3.036   4.841   0.415
 2778WAT      O 8735   1.248   0.309   3.884
 2778WAT     H1 8736   1.172   0.327   3.829
 2778WAT     H2 8737   1.318   0.362   3.847
 2779WAT      O 8738   6.794   2.697   5.110
 2779WAT     H1 8739   6.767   2.707   5.019
 2779WAT     H2 8740   6.800   2.787   5.143
 2780WAT      O 8741   6.456   3.505   4.360
 2780WAT     H1 8742   6.468   3.574   4.295
 2780WAT     H2 8743   6.521   3.438   4.336
 2781WAT      O 8744   7.115   4.336   5.835
 2781WAT     H1 8745   7.192   4.378   5.796
 2781WAT     H2 8746   7.070   4.296   5.760
 2782WAT      O 8747   6.040   4.905   1.685
 2782WAT     H1 8748   5.964   4.963   1.693
 2782WAT     H2 8749   6.113   4.964   1.667
 2783WAT      O 8750   0.243   5.643   2.602
 2783WAT     H1 8751   0.292   5.664   2.682
 2783WAT     H2 8752   0.311   5.617   2.539
 2784WAT      O 8753   1.127   1.106   2.913
 2784WAT     H1 8754   1.155   1.192   2.881
 2784WAT     H2 8755   1.103   1.121   3.005
 2785WAT      O 8756   3.437   0.960   3.037
 2785WAT     H1 8757   3.364   1.005   3.079
 2785WAT     H2 8758   3.512   1.019   3.050
 2786WAT      O 8759   7.189   3.811   3.214
 2786WAT     H1 8760   7.222   3.900   3.225
 2786WAT     H2 8761   7.263   3.763   3.175
 2787WAT      O 8762   3.074   2.305   6.018
 2787WAT     H1 8763   3.097   2.212   6.011
 2787WAT     H2 8764   2.981   2.305   6.038
 2788WAT      O 8765   5.364   2.224   4.319
 2788WAT     H1 8766   5.389   2.132   4.313
 2788WAT     H2 8767   5.331   2.245   4.232
 2789WAT      O 8768   3.709   3.021   0.946
 2789WAT     H1 8769   3.707   3.109   0.906
 2789WAT     H2 8770   3.791   2.983   0.915
 2790WAT      O 8771   1.428   4.308   3.795
 2790WAT     H1 8772   1.445   4.251   3.870
 2790WAT     H2 8773   1.427   4.250   3.719
 2791WAT      O 8774   1.247   7.076   2.394
 2791WAT     H1 8775   1.260   7.025   2.315
 2791WAT     H2 8776   1.153   7.095   2.396
 2792WAT      O 8777   0.061   0.636   2.782
 2792WAT     H1 8778   0.013   0.634   2.700
 2792WAT     H2 8779   0.139   0.582   2.765
 2793WAT      O 8780   0.497   5.783   1.327
 2793WAT     H1 8781   0.481   5.705   1.274
 2793WAT     H2 8782   0.554   5.753   1.398
 2794WAT      O 8783   5.717   2.420   3.163
 2794WAT     H1 8784   5.630   2.420   3.123
 2794WAT     H2 8785   5.760   2.342   3.129
 2795WAT      O 8786   1.851   2.411   1.125
 2795WAT     H1 8787   1.758   2.415   1.149
 2795WAT     H2 8788   1.892   2.479   1.177
 2796WAT      O 8789   4.089   1.772   3.900
 2796WAT     H1 8790   4.037   1.776   3.820
 2796WAT     H2 8791   4.073   1.855   3.944
 2797WAT      O 8792   4.345   2.041   3.711
 2797WAT     H1 8793   4.417   2.086   3.667
 2797WAT     H2 8794   4.271   2.050   3.651
 2798WAT      O 8795   0.033   6.263   0.706
 2798WAT     H1 8796  -0.034   6.330   0.714
 2798WAT     H2 8797  -0.002   6.200   0.643
 2799WAT      O 8798   0.123   3.910   5.838
 2799WAT     H1 8799   0.218   3.902   5.833
 2799WAT     H2 8800   0.107   3.985   5.895
 2800WAT      O 8801   0.468   3.937   4.973
 2800WAT     H1 8802   0.549   3.931   4.922
 2800WAT     H2 8803   0.401   3.960   4.909
 2801WAT      O 8804   0.511   2.698   5.592
 2801WAT     H1 8805   0.457   2.629   5.631
 2801WAT     H2 8806   0.601   2.665   5.598
 2802WAT      O 8807   0.048   3.512   3.533
 2802WAT     H1 8808   0.093   3.534   3.615
 2802WAT     H2 8809   0.024   3.596   3.495
 2803WAT      O 8810   2.940   5.577   1.592
 2803WAT     H1 8811   2.962   5.534   1.509
 2803WAT     H2 8812   2.847   5.599   1.584
 2804WAT      O 8813   0.169   1.368   3.539
 2804WAT     H1 8814   0.117   1.439   3.576
 2804WAT     H2 8815   0.169   1.383   3.445
 2805WAT      O 8816   1.756   2.388   4.944
 2805WAT     H1 8817   1.712   2.309   4.976
 2805WAT     H2 8818   1.824   2.356   4.885
 2806WAT      O 8819   2.912   1.959   6.206
 2806WAT     H1 8820   2.919   2.053   6.222
 2806WAT     H2 8821   2.828   1.948   6.163
 2807WAT      O 8822   3.485   3.295   4.449
 2807WAT     H1 8823   3.403   3.246   4.446
 2807WAT     H2 8824   3.524   3.283   4.363
 2808WAT      O 8825   1.597   2.633   5.935
 2808WAT     H1 8826   1.515   2.586   5.949
 2808WAT     H2 8827   1.654   2.571   5.890
 2809WAT      O 8828   4.378   3.728   2.624
 2809WAT     H1 8829   4.299   3.704   2.673
 2809WAT     H2 8830   4.449   3.685   2.672
 2810WAT      O 8831   6.332   3.888   2.857
 2810WAT     H1 8832   6.344   3.826   2.928
 2810WAT     H2 8833   6.404   3.869   2.796
 2811WAT      O 8834   0.615   4.945   2.353
 2811WAT     H1 8835   0.544   4.987   2.304
 2811WAT     H2 8836   0.692   4.999   2.336
 2812WAT      O 8837   4.453   0.125   6.022
 2812WAT     H1 8838   4.527   0.153   5.968
 2812WAT     H2 8839   4.384   0.107   5.959
 2813WAT      O 8840   2.053   4.313   1.361
 2813WAT     H1 8841   2.095   4.248   1.305
 2813WAT     H2 8842   2.061   4.278   1.450
 2814WAT      O 8843   3.709   1.737   0.893
 2814WAT     H1 8844   3.647   1.705   0.828
 2814WAT     H2 8845   3.776   1.784   0.843
 2815WAT      O 8846   6.826   5.651   5.977
 2815WAT     H1 8847   6.790   5.723   5.927
 2815WAT     H2 8848   6.888   5.609   5.917
 2816WAT      O 8849   6.751   5.976   3.783
 2816WAT     H1 8850   6.658   5.997   3.794
 2816WAT     H2 8851   6.787   5.979   3.871
 2817WAT      O 8852   1.020   6.743   5.304
 2817WAT     H1 8853   0.944   6.685   5.313
 2817WAT     H2 8854   1.078   6.696   5.245
 2818WAT      O 8855   1.685   4.028   0.020
 2818WAT     H1 8856   1.754   3.998   0.080
 2818WAT     H2 8857   1.731   4.082  -0.044
 2819WAT      O 8858   7.584   2.885   5.469
 2819WAT     H1 8859   7.679   2.890   5.470
 2819WAT     H2 8860   7.559   2.912   5.380
 2820WAT      O 8861   6.312   2.758   0.358
 2820WAT     H1 8862   6.323   2.852   0.342
 2820WAT     H2 8863   6.285   2.722   0.274
 2821WAT      O 8864   7.037   4.090   5.309
 2821WAT     H1 8865   6.998   4.161   5.258
 2821WAT     H2 8866   6.974   4.019   5.304
 2822WAT      O 8867   1.546   3.346   5.259
 2822WAT     H1 8868   1.454   3.366   5.245
 2822WAT     H2 8869   1.557   3.258   5.225
 2823WAT      O 8870   0.999   4.198   4.143
 2823WAT     H1 8871   0.932   4.266   4.150
 2823WAT     H2 8872   0.950   4.116   4.145
 2824WAT      O 8873   3.628   5.321   1.710
 2824WAT     H1 8874   3.702   5.334   1.650
 2824WAT     H2 8875   3.576   5.252   1.669
 2825WAT      O 8876   4.323   3.501   4.893
 2825WAT     H1 8877   4.348   3.526   4.804
 2825WAT     H2 8878   4.381   3.552   4.950
 2826WAT      O 8879   4.574   3.323   5.782
 2826WAT     H1 8880   4.660   3.281   5.785
 2826WAT     H2 8881   4.544   3.309   5.692
 2827WAT      O 8882   7.162   4.705   4.071
 2827WAT     H1 8883   7.245   4.703   4.119
 2827WAT     H2 8884   7.185   4.678   3.982
 2828WAT      O 8885   5.785   2.500   0.689
 2828WAT     H1 8886   5.782   2.529   0.598
 2828WAT     H2 8887   5.713   2.437   0.696
 2829WAT      O 8888   2.795   4.807   3.834
 2829WAT     H1 8889   2.797   4.850   3.748
 2829WAT     H2 8890   2.863   4.741   3.828
 2830WAT      O 8891   5.708   7.137   5.064
 2830WAT     H1 8892   5.613   7.135   5.079
 2830WAT     H2 8893   5.730   7.231   5.065
 2831WAT      O 8894   3.288   3.707   3.749
 2831WAT     H1 8895   3.193   3.715   3.744
 2831WAT     H2 8896   3.307   3.615   3.730
 2832WAT      O 8897   2.921   1.858   3.584
 2832WAT     H1 8898   3.001   1.821   3.547
 2832WAT     H2 8899   2.924   1.951   3.560
 2833WAT      O 8900   1.509   0.227   4.043
 2833WAT     H1 8901   1.439   0.292   4.049
 2833WAT     H2 8902   1.493   0.168   4.116
 2834WAT      O 8903   6.274   7.106   5.173
 2834WAT     H1 8904   6.181   7.129   5.169
 2834WAT     H2 8905   6.275   7.020   5.213
 2835WAT      O 8906   3.088   0.796   5.355
 2835WAT     H1 8907   2.993   0.803   5.367
 2835WAT     H2 8908   3.124   0.862   5.415
 2836WAT      O 8909   3.464   2.328   3.818
 2836WAT     H1 8910   3.399   2.347   3.885
 2836WAT     H2 8911   3.476   2.233   3.823
 2837WAT      O 8912   1.633   0.578   5.644
 2837WAT     H1 8913   1.543   0.555   5.622
 2837WAT     H2 8914   1.629   0.671   5.666
 2838WAT      O 8915   4.387   0.658   0.392
 2838WAT     H1 8916   4.295   0.681   0.383
 2838WAT     H2 8917   4.394   0.571   0.353
 2839WAT      O 8918   1.600   6.993   3.087
 2839WAT     H1 8919   1.565   7.082   3.090
 2839WAT     H2 8920   1.694   7.004   3.100
 2840WAT      O 8921   7.457   4.092   5.886
 2840WAT     H1 8922   7.474   4.003   5.854
 2840WAT     H2 8923   7.446   4.144   5.806
 2841WAT      O 8924   3.362   4.569   6.127
 2841WAT     H1 8925   3.390   4.541   6.040
 2841WAT     H2 8926   3.299   4.639   6.111
 2842WAT      O 8927   2.168   2.994   4.212
 2842WAT     H1 8928   2.213   3.068   4.254
 2842WAT     H2 8929   2.183   3.007   4.119
 2843WAT      O 8930   3.036   5.681   4.836
 2843WAT     H1 8931   2.956   5.724   4.804
 2843WAT     H2 8932   3.014   5.588   4.839
 2844WAT      O 8933   5.957   6.661   1.850
 2844WAT     H1 8934   5.915   6.600   1.790
 2844WAT     H2 8935   5.997   6.727   1.792
 2845WAT      O 8936   1.229   0.705   4.037
 2845WAT     H1 8937   1.159   0.643   4.015
 2845WAT     H2 8938   1.233   0.765   3.963
 2846WAT      O 8939   6.947   1.234   3.474
 2846WAT     H1 8940   7.003   1.311   3.468
 2846WAT     H2 8941   6.886   1.244   3.400
 2847WAT      O 8942   3.282   3.011   5.257
 2847WAT     H1 8943   3.286   3.010   5.353
 2847WAT     H2 8944   3.337   3.085   5.231
 2848WAT      O 8945   3.803   3.887   3.744
 2848WAT     H1 8946   3.836   3.919   3.660
 2848WAT     H2 8947   3.722   3.936   3.757
 2849WAT      O 8948   6.125   3.519   2.170
 2849WAT     H1 8949   6.058   3.515   2.102
 2849WAT     H2 8950   6.193   3.458   2.141
 2850WAT      O 8951   2.618   0.312   5.667
 2850WAT     H1 8952   2.526   0.298   5.650
 2850WAT     H2 8953   2.656   0.329   5.580
 2851WAT      O 8954   7.231   1.778   0.171
 2851WAT     H1 8955   7.297   1.712   0.189
 2851WAT     H2 8956   7.152   1.728   0.152
 2852WAT      O 8957   1.922   4.054   2.988
 2852WAT     H1 8958   1.930   4.114   2.913
 2852WAT     H2 8959   1.890   3.973   2.949
 2853WAT      O 8960   1.562   4.591   5.507
 2853WAT     H1 8961   1.599   4.504   5.517
 2853WAT     H2 8962   1.504   4.584   5.431
 2854WAT      O 8963   3.380   2.851   2.551
 2854WAT     H1 8964   3.395   2.837   2.458
 2854WAT     H2 8965   3.467   2.855   2.589
 2855WAT      O 8966   5.841   5.406   5.049
 2855WAT     H1 8967   5.758   5.442   5.018
 2855WAT     H2 8968   5.826   5.388   5.142
 2856WAT      O 8969   5.814   3.991   5.875
 2856WAT     H1 8970   5.733   3.961   5.833
 2856WAT     H2 8971   5.825   4.081   5.846
 2857WAT      O 8972   0.293   3.086   1.027
 2857WAT     H1 8973   0.365   3.085   1.090
 2857WAT     H2 8974   0.313   3.158   0.968
 2858WAT      O 8975   7.275   5.379   0.793
 2858WAT     H1 8976   7.296   5.389   0.700
 2858WAT     H2 8977   7.206   5.313   0.795
 2859WAT      O 8978   3.091   0.244   1.361
 2859WAT     H1 8979   3.097   0.291   1.277
 2859WAT     H2 8980   3.180   0.215   1.378
 2860WAT      O 8981   5.067   5.015   0.197
 2860WAT     H1 8982   5.098   5.041   0.284
 2860WAT     H2 8983   5.030   5.096   0.160
 2861WAT      O 8984   6.913   5.683   3.510
 2861WAT     H1 8985   6.949   5.596   3.525
 2861WAT     H2 8986   6.876   5.679   3.422
 2862WAT      O 8987   1.101   2.970   0.415
 2862WAT     H1 8988   1.078   2.878   0.428
 2862WAT     H2 8989   1.196   2.972   0.425
 2863WAT      O 8990   0.058   2.025   2.884
 2863WAT     H1 8991   0.008   2.070   2.816
 2863WAT     H2 8992   0.002   2.030   2.962
 2864WAT      O 8993   6.616   4.137   5.772
 2864WAT     H1 8994   6.532   4.096   5.794
 2864WAT     H2 8995   6.644   4.092   5.692
 2865WAT      O 8996   3.116   6.082   6.133
 2865WAT     H1 8997   3.056   6.156   6.143
 2865WAT     H2 8998   3.058   6.006   6.123
 2866WAT      O 8999   6.096   4.734   1.896
 2866WAT     H1 9000   6.138   4.804   1.945
 2866WAT     H2 9001   6.050   4.779   1.825
 2867WAT      O 9002   1.195   6.050   0.717
 2867WAT     H1 9003   1.286   6.043   0.687
 2867WAT     H2 9004   1.146   5.997   0.654
 2868WAT      O 9005   1.554   2.647   4.882
 2868WAT     H1 9006   1.648   2.665   4.887
 2868WAT     H2 9007   1.542   2.606   4.796
 2869WAT      O 9008   6.790   2.806   3.983
 2869WAT     H1 9009   6.784   2.830   3.890
 2869WAT     H2 9010   6.773   2.888   4.030
 2870WAT      O 9011   1.020   1.699   6.217
 2870WAT     H1 9012   0.983   1.619   6.257
 2870WAT     H2 9013   0.984   1.770   6.269
 2871WAT      O 9014   7.093   1.439   4.192
 2871WAT     H1 9015   7.042   1.420   4.113
 2871WAT     H2 9016   7.176   1.393   4.178
 2872WAT      O 9017   3.572   5.966   3.129
 2872WAT     H1 9018   3.482   5.949   3.102
 2872WAT     H2 9019   3.605   5.881   3.158
 2873WAT      O 9020   2.080   6.394   3.207
 2873WAT     H1 9021   2.142   6.462   3.232
 2873WAT     H2 9022   2.080   6.396   3.111
 2874WAT      O 9023   0.359   3.698   1.221
 2874WAT     H1 9024   0.322   3.657   1.142
 2874WAT     H2 9025   0.414   3.769   1.187
 2875WAT      O 9026   6.248   1.602   1.459
 2875WAT     H1 9027   6.314   1.542   1.423
 2875WAT     H2 9028   6.173   1.547   1.478
 2876WAT      O 9029   3.204   6.909   3.584
 2876WAT     H1 9030   3.139   6.967   3.544
 2876WAT     H2 9031   3.249   6.869   3.510
 2877WAT      O 9032   1.656   6.843   5.093
 2877WAT     H1 9033   1.609   6.773   5.139
 2877WAT     H2 9034   1.693   6.800   5.015
 2878WAT      O 9035   4.674   2.396   1.427
 2878WAT     H1 9036   4.589   2.356   1.410
 2878WAT     H2 9037   4.657   2.490   1.423
 2879WAT      O 9038   3.554   3.559   3.729
 2879WAT     H1 9039   3.579   3.468   3.745
 2879WAT     H2 9040   3.535   3.595   3.816
 2880WAT      O 9041   0.186   2.761   5.806
 2880WAT     H1 9042   0.108   2.724   5.847
 2880WAT     H2 9043   0.255   2.697   5.823
 2881WAT      O 9044   5.322   0.721   1.556
 2881WAT     H1 9045   5.297   0.724   1.464
 2881WAT     H2 9046   5.416   0.706   1.555
 2882WAT      O 9047   2.797   0.161   1.300
 2882WAT     H1 9048   2.830   0.219   1.231
 2882WAT     H2 9049   2.818   0.073   1.269
 2883WAT      O 9050   3.276   5.683   3.864
 2883WAT     H1 9051   3.306   5.599   3.830
 2883WAT     H2 9052   3.282   5.673   3.959
 2884WAT      O 9053   6.122   2.966   2.349
 2884WAT     H1 9054   6.196   2.909   2.369
 2884WAT     H2 9055   6.045   2.914   2.371
 2885WAT      O 9056   0.298   1.823   5.424
 2885WAT     H1 9057   0.266   1.887   5.360
 2885WAT     H2 9058   0.264   1.739   5.393
 2886WAT      O 9059   5.379   1.205   0.074
 2886WAT     H1 9060   5.374   1.264  -0.001
 2886WAT     H2 9061   5.287   1.184   0.093
 2887WAT      O 9062   2.040   2.007   1.331
 2887WAT     H1 9063   2.070   1.970   1.414
 2887WAT     H2 9064   1.997   2.089   1.355
 2888WAT      O 9065   6.318   6.163   5.247
 2888WAT     H1 9066   6.268   6.112   5.183
 2888WAT     H2 9067   6.273   6.248   5.249
 2889WAT      O 9068   0.613   3.884   2.690
 2889WAT     H1 9069   0.643   3.851   2.605
 2889WAT     H2 9070   0.535   3.935   2.669
 2890WAT      O 9071   7.020   5.414   4.321
 2890WAT     H1 9072   7.034   5.323   4.294
 2890WAT     H2 9073   6.972   5.453   4.248
 2891WAT      O 9074   4.525   6.769   2.697
 2891WAT     H1 9075   4.510   6.805   2.610
 2891WAT     H2 9076   4.549   6.678   2.682
 2892WAT      O 9077   2.420   0.753   2.522
 2892WAT     H1 9078   2.340   0.756   2.469
 2892WAT     H2 9079   2.488   0.724   2.461
 2893WAT      O 9080   6.193   1.233   0.079
 2893WAT     H1 9081   6.208   1.191  -0.005
 2893WAT     H2 9082   6.260   1.196   0.137
 2894WAT      O 9083   5.929   1.872   4.458
 2894WAT     H1 9084   5.980   1.896   4.535
 2894WAT     H2 9085   5.906   1.780   4.471
 2895WAT      O 9086   4.937   3.373   5.733
 2895WAT     H1 9087   4.909   3.324   5.656
 2895WAT     H2 9088   5.033   3.367   5.731
 2896WAT      O 9089   7.318   6.474   1.037
 2896WAT     H1 9090   7.299   6.552   1.089
 2896WAT     H2 9091   7.386   6.428   1.086
 2897WAT      O 9092   1.551   4.790   2.212
 2897WAT     H1 9093   1.555   4.854   2.141
 2897WAT     H2 9094   1.624   4.730   2.195
 2898WAT      O 9095   6.190   2.188   4.246
 2898WAT     H1 9096   6.103   2.149   4.238
 2898WAT     H2 9097   6.250   2.120   4.215
 2899WAT      O 9098   3.427   6.436   3.958
 2899WAT     H1 9099   3.337   6.424   3.928
 2899WAT     H2 9100   3.439   6.531   3.962
 2900WAT      O 9101   1.182   5.231   1.772
 2900WAT     H1 9102   1.267   5.201   1.802
 2900WAT     H2 9103   1.193   5.324   1.754
 2901WAT      O 9104   1.638   5.148   6.152
 2901WAT     H1 9105   1.548   5.120   6.137
 2901WAT     H2 9106   1.686   5.120   6.074
 2902WAT      O 9107   0.409   5.861   1.714
 2902WAT     H1 9108   0.371   5.947   1.735
 2902WAT     H2 9109   0.335   5.801   1.717
 2903WAT      O 9110   1.129   6.118   0.326
 2903WAT     H1 9111   1.126   6.203   0.370
 2903WAT     H2 9112   1.042   6.081   0.340
 2904WAT      O 9113   4.508   2.366   1.880
 2904WAT     H1 9114   4.522   2.344   1.972
 2904WAT     H2 9115   4.532   2.286   1.832
 2905WAT      O 9116   0.143   4.314   0.755
 2905WAT     H1 9117   0.101   4.399   0.768
 2905WAT     H2 9118   0.162   4.311   0.661
 2906WAT      O 9119   0.173  -0.004   4.961
 2906WAT     H1 9120   0.155   0.011   4.868
 2906WAT     H2 9121   0.235   0.065   4.984
 2907WAT      O 9122   1.448   6.046   0.586
 2907WAT     H1 9123   1.460   5.954   0.564
 2907WAT     H2 9124   1.536   6.079   0.602
 2908WAT      O 9125   2.123   2.002   5.242
 2908WAT     H1 9126   2.081   2.001   5.156
 2908WAT     H2 9127   2.189   1.932   5.237
 2909WAT      O 9128   2.622   0.800   0.632
 2909WAT     H1 9129   2.708   0.767   0.655
 2909WAT     H2 9130   2.630   0.829   0.541
 2910WAT      O 9131   2.501   6.323   3.624
 2910WAT     H1 9132   2.545   6.406   3.606
 2910WAT     H2 9133   2.415   6.347   3.656
 2911WAT      O 9134   6.081   5.880   2.134
 2911WAT     H1 9135   6.012   5.832   2.088
 2911WAT     H2 9136   6.155   5.818   2.136
 2912WAT      O 9137   0.792   3.438   1.094
 2912WAT     H1 9138   0.872   3.482   1.067
 2912WAT     H2 9139   0.800   3.349   1.059
 2913WAT      O 9140   6.182   5.095   4.233
 2913WAT     H1 9141   6.234   5.053   4.302
 2913WAT     H2 9142   6.120   5.150   4.281
 2914WAT      O 9143   3.818   1.230   3.657
 2914WAT     H1 9144   3.765   1.272   3.725
 2914WAT     H2 9145   3.809   1.288   3.581
 2915WAT      O 9146   6.258   2.748   0.960
 2915WAT     H1 9147   6.237   2.714   1.047
 2915WAT     H2 9148   6.342   2.707   0.938
 2916WAT      O 9149   5.786   0.435   5.675
 2916WAT     H1 9150   5.751   0.349   5.650
 2916WAT     H2 9151   5.853   0.454   5.609
 2917WAT      O 9152   4.732   6.954   0.739
 2917WAT     H1 9153   4.805   7.010   0.765
 2917WAT     H2 9154   4.761   6.914   0.657
 2918WAT      O 9155   7.597   6.126   3.971
 2918WAT     H1 9156   7.622   6.122   3.879
 2918WAT     H2 9157   7.610   6.217   3.996
 2919WAT      O 9158   6.567   2.864   3.082
 2919WAT     H1 9159   6.651   2.828   3.052
 2919WAT     H2 9160   6.591   2.934   3.143
 2920WAT      O 9161   2.940   6.640   2.095
 2920WAT     H1 9162   2.961   6.548   2.080
 2920WAT     H2 9163   2.976   6.685   2.018
 2921WAT      O 9164   4.676   0.144   3.374
 2921WAT     H1 9165   4.636   0.182   3.296
 2921WAT     H2 9166   4.753   0.097   3.342
 2922WAT      O 9167   1.561   3.101   4.473
 2922WAT     H1 9168   1.468   3.120   4.459
 2922WAT     H2 9169   1.573   3.013   4.437
 2923WAT      O 9170   3.036   6.123   2.826
 2923WAT     H1 9171   2.991   6.039   2.820
 2923WAT     H2 9172   3.128   6.100   2.837
 2924WAT      O 9173   2.262   3.283   0.335
 2924WAT     H1 9174   2.342   3.336   0.334
 2924WAT     H2 9175   2.293   3.193   0.322
 2925WAT      O 9176   3.367   4.864   6.092
 2925WAT     H1 9177   3.298   4.924   6.119
 2925WAT     H2 9178   3.446   4.918   6.090
 2926WAT      O 9179   0.523   5.182   1.455
 2926WAT     H1 9180   0.441   5.135   1.470
 2926WAT     H2 9181   0.566   5.185   1.541
 2927WAT      O 9182   2.815   3.068   3.857
 2927WAT     H1 9183   2.898   3.115   3.849
 2927WAT     H2 9184   2.827   2.991   3.801
 2928WAT      O 9185   6.044   1.439   0.688
 2928WAT     H1 9186   6.010   1.404   0.605
 2928WAT     H2 9187   6.015   1.376   0.754
 2929WAT      O 9188   7.060   3.058   0.563
 2929WAT     H1 9189   7.040   3.136   0.510
 2929WAT     H2 9190   7.105   2.999   0.503
 2930WAT      O 9191   4.054   3.399   5.501
 2930WAT     H1 9192   3.976   3.350   5.477
 2930WAT     H2 9193   4.121   3.369   5.439
 2931WAT      O 9194   1.547   1.333   5.124
 2931WAT     H1 9195   1.553   1.272   5.050
 2931WAT     H2 9196   1.453   1.338   5.142
 2932WAT      O 9197   0.018   1.287   1.472
 2932WAT     H1 9198   0.050   1.292   1.562
 2932WAT     H2 9199   0.060   1.360   1.428
 2933WAT      O 9200   4.297   1.080   1.392
 2933WAT     H1 9201   4.358   1.017   1.354
 2933WAT     H2 9202   4.263   1.129   1.317
 2934WAT      O 9203   7.197   5.086   1.056
 2934WAT     H1 9204   7.161   5.105   0.969
 2934WAT     H2 9205   7.260   5.016   1.040
 2935WAT      O 9206   5.695   6.127   3.876
 2935WAT     H1 9207   5.764   6.063   3.889
 2935WAT     H2 9208   5.617   6.087   3.916
 2936WAT      O 9209   4.767   3.540   4.537
 2936WAT     H1 9210   4.727   3.620   4.504
 2936WAT     H2 9211   4.860   3.562   4.548
 2937WAT      O 9212   1.207   2.594   5.496
 2937WAT     H1 9213   1.177   2.515   5.451
 2937WAT     H2 9214   1.140   2.611   5.562
 2938WAT      O 9215   4.376   3.635   6.079
 2938WAT     H1 9216   4.311   3.588   6.131
 2938WAT     H2 9217   4.376   3.593   5.994
 2939WAT      O 9218   6.583   1.630   4.464
 2939WAT     H1 9219   6.634   1.550   4.477
 2939WAT     H2 9220   6.645   1.691   4.424
 2940WAT      O 9221   3.466   5.723   2.959
 2940WAT     H1 9222   3.553   5.701   2.993
 2940WAT     H2 9223   3.437   5.644   2.914
 2941WAT      O 9224   4.578   6.143   3.610
 2941WAT     H1 9225   4.522   6.195   3.553
 2941WAT     H2 9226   4.618   6.079   3.551
 2942WAT      O 9227   1.420   5.373   2.857
 2942WAT     H1 9228   1.509   5.345   2.838
 2942WAT     H2 9229   1.377   5.379   2.771
 2943WAT      O 9230   3.993   2.347   1.799
 2943WAT     H1 9231   4.058   2.415   1.815
 2943WAT     H2 9232   4.020   2.306   1.716
 2944WAT      O 9233   5.617   0.114   5.637
 2944WAT     H1 9234   5.706   0.096   5.606
 2944WAT     H2 9235   5.582   0.175   5.572
 2945WAT      O 9236   5.833   3.801   0.060
 2945WAT     H1 9237   5.830   3.838  -0.028
 2945WAT     H2 9238   5.923   3.773   0.072
 2946WAT      O 9239   0.760   2.844   5.242
 2946WAT     H1 9240   0.745   2.818   5.151
 2946WAT     H2 9241   0.752   2.762   5.292
 2947WAT      O 9242   1.235   6.984   2.135
 2947WAT     H1 9243   1.237   6.893   2.161
 2947WAT     H2 9244   1.288   6.987   2.055
 2948WAT      O 9245   2.670   5.905   4.798
 2948WAT     H1 9246   2.600   5.843   4.778
 2948WAT     H2 9247   2.638   5.988   4.764
 2949WAT      O 9248   7.568   5.308   1.695
 2949WAT     H1 9249   7.561   5.390   1.744
 2949WAT     H2 9250   7.568   5.335   1.603
 2950WAT      O 9251   6.285   2.875   2.705
 2950WAT     H1 9252   6.200   2.875   2.749
 2950WAT     H2 9253   6.274   2.817   2.631
 2951WAT      O 9254   5.481   4.744   0.317
 2951WAT     H1 9255   5.529   4.703   0.245
 2951WAT     H2 9256   5.389   4.739   0.291
 2952WAT      O 9257   6.423   6.078   4.676
 2952WAT     H1 9258   6.384   6.075   4.764
 2952WAT     H2 9259   6.348   6.084   4.617
 2953WAT      O 9260   4.295   3.284   2.395
 2953WAT     H1 9261   4.203   3.291   2.369
 2953WAT     H2 9262   4.341   3.340   2.332
 2954WAT      O 9263   2.372   3.384   4.086
 2954WAT     H1 9264   2.326   3.380   4.002
 2954WAT     H2 9265   2.434   3.456   4.076
 2955WAT      O 9266   3.093   1.957   3.323
 2955WAT     H1 9267   3.178   2.000   3.323
 2955WAT     H2 9268   3.112   1.866   3.346
 2956WAT      O 9269   5.390   5.729   5.374
 2956WAT     H1 9270   5.364   5.689   5.291
 2956WAT     H2 9271   5.396   5.655   5.435
 2957WAT      O 9272   4.714   2.403   0.416
 2957WAT     H1 9273   4.665   2.483   0.436
 2957WAT     H2 9274   4.773   2.429   0.345
 2958WAT      O 9275   0.299   5.281   5.865
 2958WAT     H1 9276   0.365   5.342   5.831
 2958WAT     H2 9277   0.243   5.262   5.789
 2959WAT      O 9278   0.067   0.939   5.431
 2959WAT     H1 9279   0.113   0.861   5.400
 2959WAT     H2 9280  -0.018   0.936   5.386
 2960WAT      O 9281   0.604   3.039   5.312
 2960WAT     H1 9282   0.635   3.093   5.239
 2960WAT     H2 9283   0.651   2.957   5.303
 2961WAT      O 9284   1.598   2.260   6.228
 2961WAT     H1 9285   1.575   2.172   6.196
 2961WAT     H2 9286   1.528   2.316   6.195
 2962WAT      O 9287   4.358   4.618   3.956
 2962WAT     H1 9288   4.351   4.593   4.048
 2962WAT     H2 9289   4.333   4.540   3.907
 2963WAT      O 9290   6.182   1.868   2.837
 2963WAT     H1 9291   6.146   1.897   2.921
 2963WAT     H2 9292   6.259   1.817   2.860
 2964WAT      O 9293   7.466   3.339   1.204
 2964WAT     H1 9294   7.511   3.405   1.151
 2964WAT     H2 9295   7.471   3.259   1.153
 2965WAT      O 9296   4.658   6.153   2.294
 2965WAT     H1 9297   4.677   6.144   2.200
 2965WAT     H2 9298   4.567   6.123   2.302
 2966WAT      O 9299   0.513   5.965   2.698
 2966WAT     H1 9300   0.586   5.903   2.691
 2966WAT     H2 9301   0.460   5.950   2.620
 2967WAT      O 9302   0.485   4.975   3.841
 2967WAT     H1 9303   0.570   5.000   3.878
 2967WAT     H2 9304   0.459   5.050   3.788
 2968WAT      O 9305   2.890   0.711   0.640
 2968WAT     H1 9306   2.908   0.768   0.565
 2968WAT     H2 9307   2.919   0.624   0.612
 2969WAT      O 9308   0.789   6.427   3.875
 2969WAT     H1 9309   0.852   6.488   3.915
 2969WAT     H2 9310   0.772   6.464   3.789
 2970WAT      O 9311   1.329   6.818   3.000
 2970WAT     H1 9312   1.259   6.827   2.935
 2970WAT     H2 9313   1.409   6.821   2.948
 2971WAT      O 9314   1.306   6.649   5.555
 2971WAT     H1 9315   1.369   6.579   5.542
 2971WAT     H2 9316   1.322   6.710   5.484
 2972WAT      O 9317   5.902   3.933   3.795
 2972WAT     H1 9318   5.885   4.010   3.742
 2972WAT     H2 9319   5.990   3.905   3.769
 2973WAT      O 9320   7.426   4.346   2.659
 2973WAT     H1 9321   7.354   4.326   2.718
 2973WAT     H2 9322   7.384   4.385   2.582
 2974WAT      O 9323   7.523   3.944   6.199
 2974WAT     H1 9324   7.549   3.873   6.140
 2974WAT     H2 9325   7.471   3.901   6.267
 2975WAT      O 9326   0.346   3.682   1.951
 2975WAT     H1 9327   0.273   3.729   1.992
 2975WAT     H2 9328   0.331   3.591   1.973
 2976WAT      O 9329   3.937   6.736   1.462
 2976WAT     H1 9330   4.006   6.721   1.397
 2976WAT     H2 9331   3.855   6.729   1.413
 2977WAT      O 9332   6.366   6.628   2.513
 2977WAT     H1 9333   6.308   6.695   2.477
 2977WAT     H2 9334   6.447   6.675   2.535
 2978WAT      O 9335   1.963   5.253   3.841
 2978WAT     H1 9336   1.958   5.344   3.813
 2978WAT     H2 9337   2.018   5.210   3.776
 2979WAT      O 9338   3.427   1.145   4.852
 2979WAT     H1 9339   3.457   1.057   4.830
 2979WAT     H2 9340   3.394   1.137   4.942
 2980WAT      O 9341   2.710   5.418   0.877
 2980WAT     H1 9342   2.777   5.435   0.944
 2980WAT     H2 9343   2.678   5.505   0.853
 2981WAT      O 9344   3.028   5.165   3.942
 2981WAT     H1 9345   3.019   5.257   3.917
 2981WAT     H2 9346   3.019   5.116   3.861
 2982WAT      O 9347   5.059   2.056   3.920
 2982WAT     H1 9348   5.019   2.124   3.865
 2982WAT     H2 9349   5.103   1.998   3.857
 2983WAT      O 9350   5.363   5.221   0.659
 2983WAT     H1 9351   5.293   5.188   0.715
 2983WAT     H2 9352   5.394   5.144   0.611
 2984WAT      O 9353   1.561   1.229   4.526
 2984WAT     H1 9354   1.629   1.167   4.499
 2984WAT     H2 9355   1.494   1.222   4.459
 2985WAT      O 9356   1.408   3.743   2.359
 2985WAT     H1 9357   1.370   3.774   2.277
 2985WAT     H2 9358   1.490   3.792   2.368
 2986WAT      O 9359   6.579   4.387   6.041
 2986WAT     H1 9360   6.569   4.374   5.947
 2986WAT     H2 9361   6.622   4.308   6.073
 2987WAT      O 9362   3.965   4.478   1.889
 2987WAT     H1 9363   3.913   4.417   1.942
 2987WAT     H2 9364   3.922   4.562   1.901
 2988WAT      O 9365   5.819   3.816   1.782
 2988WAT     H1 9366   5.809   3.731   1.740
 2988WAT     H2 9367   5.729   3.847   1.793
 2989WAT      O 9368   3.643   4.184   1.729
 2989WAT     H1 9369   3.568   4.243   1.731
 2989WAT     H2 9370   3.667   4.179   1.636
 2990WAT      O 9371   6.644   3.338   4.282
 2990WAT     H1 9372   6.625   3.255   4.237
 2990WAT     H2 9373   6.736   3.355   4.265
 2991WAT      O 9374   4.633   4.088   5.466
 2991WAT     H1 9375   4.542   4.091   5.435
 2991WAT     H2 9376   4.630   4.128   5.552
 2992WAT      O 9377   1.529   4.509   4.512
 2992WAT     H1 9378   1.477   4.585   4.487
 2992WAT     H2 9379   1.591   4.543   4.577
 2993WAT      O 9380   3.767   0.639   2.157
 2993WAT     H1 9381   3.745   0.638   2.064
 2993WAT     H2 9382   3.811   0.723   2.170
 2994WAT      O 9383   2.665   2.149   1.188
 2994WAT     H1 9384   2.684   2.072   1.134
 2994WAT     H2 9385   2.633   2.214   1.126
 2995WAT      O 9386   0.569   4.091   0.944
 2995WAT     H1 9387   0.563   4.075   0.850
 2995WAT     H2 9388   0.497   4.152   0.962
 2996WAT      O 9389   4.866   7.023   1.431
 2996WAT     H1 9390   4.875   7.076   1.352
 2996WAT     H2 9391   4.772   7.007   1.438
 2997WAT      O 9392   1.147   3.916   0.206
 2997WAT     H1 9393   1.243   3.919   0.207
 2997WAT     H2 9394   1.119   4.003   0.234
 2998WAT      O 9395   4.514   6.824   5.667
 2998WAT     H1 9396   4.560   6.765   5.727
 2998WAT     H2 9397   4.506   6.774   5.586
 2999WAT      O 9398   3.964   0.973   5.172
 2999WAT     H1 9399   3.960   0.877   5.167
 2999WAT     H2 9400   4.050   0.992   5.207
 3000WAT      O 9401   6.086   0.938   3.191
 3000WAT     H1 9402   6.080   1.033   3.190
 3000WAT     H2 9403   6.055   0.911   3.105
 3001WAT      O 9404   4.551   3.925   1.776
 3001WAT     H1 9405   4.612   3.871   1.826
 3001WAT     H2 9406   4.604   3.963   1.706
 3002WAT      O 9407   6.347   3.530   1.592
 3002WAT     H1 9408   6.400   3.458   1.558
 3002WAT     H2 9409   6.268   3.529   1.537
 3003WAT      O 9410   2.967   1.168   0.129
 3003WAT     H1 9411   3.037   1.216   0.086
 3003WAT     H2 9412   2.923   1.120   0.058
 3004WAT      O 9413   4.609   4.860   5.032
 3004WAT     H1 9414   4.704   4.850   5.018
 3004WAT     H2 9415   4.602   4.921   5.105
 3005WAT      O 9416   5.787   6.518   4.404
 3005WAT     H1 9417   5.788   6.470   4.322
 3005WAT     H2 9418   5.858   6.582   4.395
 3006WAT      O 9419   3.590   0.848   1.902
 3006WAT     H1 9420   3.557   0.877   1.817
 3006WAT     H2 9421   3.667   0.903   1.918
 3007WAT      O 9422   7.052   6.991   3.198
 3007WAT     H1 9423   7.019   6.905   3.173
 3007WAT     H2 9424   7.038   7.046   3.121
 3008WAT      O 9425   4.850   2.474   2.417
 3008WAT     H1 9426   4.911   2.444   2.485
 3008WAT     H2 9427   4.886   2.557   2.387
 3009WAT      O 9428   2.484   1.457   5.269
 3009WAT     H1 9429   2.567   1.426   5.305
 3009WAT     H2 9430   2.509   1.517   5.199
 3010WAT      O 9431   6.387   6.139   0.573
 3010WAT     H1 9432   6.319   6.079   0.604
 3010WAT     H2 9433   6.364   6.223   0.613
 3011WAT      O 9434   3.583   6.655   1.792
 3011WAT     H1 9435   3.613   6.632   1.704
 3011WAT     H2 9436   3.649   6.714   1.825
 3012WAT      O 9437   2.351   4.194   2.526
 3012WAT     H1 9438   2.393   4.228   2.605
 3012WAT     H2 9439   2.404   4.118   2.502
 3013WAT      O 9440   4.652   6.715   3.989
 3013WAT     H1 9441   4.570   6.671   3.965
 3013WAT     H2 9442   4.637   6.747   4.078
 3014WAT      O 9443   3.416   4.969   4.895
 3014WAT     H1 9444   3.491   4.919   4.928
 3014WAT     H2 9445   3.343   4.940   4.949
 3015WAT      O 9446   6.491   5.156   0.310
 3015WAT     H1 9447   6.490   5.134   0.217
 3015WAT     H2 9448   6.488   5.252   0.312
 3016WAT      O 9449   0.694   5.531   5.640
 3016WAT     H1 9450   0.727   5.481   5.565
 3016WAT     H2 9451   0.772   5.548   5.693
 3017WAT      O 9452   7.347   5.707   1.786
 3017WAT     H1 9453   7.361   5.712   1.691
 3017WAT     H2 9454   7.383   5.622   1.811
 3018WAT      O 9455   0.368   4.110   1.837
 3018WAT     H1 9456   0.332   4.125   1.925
 3018WAT     H2 9457   0.318   4.035   1.804
 3019WAT      O 9458   0.912   3.401   4.859
 3019WAT     H1 9459   1.001   3.366   4.867
 3019WAT     H2 9460   0.894   3.400   4.765
 3020WAT      O 9461   3.575   4.013   5.119
 3020WAT     H1 9462   3.562   3.922   5.146
 3020WAT     H2 9463   3.497   4.035   5.069
 3021WAT      O 9464   0.420   4.097   3.465
 3021WAT     H1 9465   0.477   4.051   3.403
 3021WAT     H2 9466   0.409   4.036   3.537
 3022WAT      O 9467   0.197   3.041   2.105
 3022WAT     H1 9468   0.134   3.047   2.178
 3022WAT     H2 9469   0.225   2.950   2.105
 3023WAT      O 9470   4.104   0.632   0.444
 3023WAT     H1 9471   4.038   0.564   0.457
 3023WAT     H2 9472   4.110   0.642   0.349
 3024WAT      O 9473   0.571   0.145   4.177
 3024WAT     H1 9474   0.557   0.184   4.091
 3024WAT     H2 9475   0.659   0.171   4.201
 3025WAT      O 9476   2.455   3.183   4.471
 3025WAT     H1 9477   2.424   3.094   4.491
 3025WAT     H2 9478   2.491   3.176   4.383
 3026WAT      O 9479   2.266   6.643   5.927
 3026WAT     H1 9480   2.320   6.649   5.848
 3026WAT     H2 9481   2.195   6.705   5.913
 3027WAT      O 9482   2.922   2.734   1.084
 3027WAT     H1 9483   2.947   2.826   1.083
 3027WAT     H2 9484   3.003   2.686   1.069
 3028WAT      O 9485   3.997   6.196   5.384
 3028WAT     H1 9486   3.985   6.121   5.327
 3028WAT     H2 9487   3.982   6.162   5.472
 3029WAT      O 9488   0.979   6.312   5.462
 3029WAT     H1 9489   1.045   6.244   5.478
 3029WAT     H2 9490   1.024   6.394   5.481
 3030WAT      O 9491   4.611   2.673   0.443
 3030WAT     H1 9492   4.597   2.698   0.352
 3030WAT     H2 9493   4.567   2.741   0.494
 3031WAT      O 9494   3.781   3.658   2.104
 3031WAT     H1 9495   3.687   3.657   2.120
 3031WAT     H2 9496   3.794   3.730   2.043
 3032WAT      O 9497   1.592   3.491   6.136
 3032WAT     H1 9498   1.597   3.431   6.061
 3032WAT     H2 9499   1.683   3.515   6.153
 3033WAT      O 9500   7.078   5.433   5.293
 3033WAT     H1 9501   7.027   5.501   5.247
 3033WAT     H2 9502   7.159   5.427   5.243
 3034WAT      O 9503   3.285   2.511   0.759
 3034WAT     H1 9504   3.291   2.468   0.673
 3034WAT     H2 9505   3.191   2.525   0.771
 3035WAT      O 9506   3.667   3.675   1.046
 3035WAT     H1 9507   3.658   3.710   0.957
 3035WAT     H2 9508   3.603   3.724   1.097
 3036WAT      O 9509   4.286   5.136   2.688
 3036WAT     H1 9510   4.212   5.151   2.630
 3036WAT     H2 9511   4.362   5.167   2.639
 3037WAT      O 9512   2.418   0.591   4.802
 3037WAT     H1 9513   2.445   0.499   4.803
 3037WAT     H2 9514   2.336   0.593   4.850
 3038WAT      O 9515   6.739   1.191   6.230
 3038WAT     H1 9516   6.788   1.109   6.224
 3038WAT     H2 9517   6.724   1.217   6.139
 3039WAT      O 9518   1.290   4.747   3.223
 3039WAT     H1 9519   1.369   4.696   3.202
 3039WAT     H2 9520   1.228   4.726   3.153
 3040WAT      O 9521   0.909   0.023   1.076
 3040WAT     H1 9522   0.926  -0.008   0.987
 3040WAT     H2 9523   0.933   0.116   1.074
 3041WAT      O 9524   0.660   0.170   6.013
 3041WAT     H1 9525   0.685   0.088   5.970
 3041WAT     H2 9526   0.592   0.144   6.076
 3042WAT      O 9527   0.231   3.476   4.584
 3042WAT     H1 9528   0.175   3.524   4.645
 3042WAT     H2 9529   0.207   3.510   4.498
 3043WAT      O 9530   5.697   0.674   0.931
 3043WAT     H1 9531   5.727   0.595   0.977
 3043WAT     H2 9532   5.761   0.687   0.861
 3044WAT      O 9533   6.232   5.330   0.998
 3044WAT     H1 9534   6.240   5.361   0.907
 3044WAT     H2 9535   6.228   5.234   0.990
 3045WAT      O 9536   5.821   0.614   3.311
 3045WAT     H1 9537   5.799   0.680   3.246
 3045WAT     H2 9538   5.736   0.580   3.340
 3046WAT      O 9539   5.920   2.443   2.919
 3046WAT     H1 9540   5.932   2.385   2.994
 3046WAT     H2 9541   5.949   2.391   2.843
 3047WAT      O 9542   6.306   0.841   0.532
 3047WAT     H1 9543   6.374   0.848   0.465
 3047WAT     H2 9544   6.232   0.802   0.486
 3048WAT      O 9545   4.865   0.037   0.042
 3048WAT     H1 9546   4.938   0.047   0.103
 3048WAT     H2 9547   4.906   0.026  -0.044
 3049WAT      O 9548   3.596   4.080   5.879
 3049WAT     H1 9549   3.507   4.094   5.847
 3049WAT     H2 9550   3.633   4.013   5.822
 3050WAT      O 9551   5.922   4.076   1.726
 3050WAT     H1 9552   6.013   4.061   1.698
 3050WAT     H2 9553   5.902   4.000   1.781
 3051WAT      O 9554   5.184   3.141   3.874
 3051WAT     H1 9555   5.240   3.215   3.897
 3051WAT     H2 9556   5.183   3.139   3.778
 3052WAT      O 9557   0.209   2.283   6.126
 3052WAT     H1 9558   0.252   2.199   6.139
 3052WAT     H2 9559   0.266   2.329   6.064
 3053WAT      O 9560   0.046   1.777   3.439
 3053WAT     H1 9561  -0.018   1.744   3.376
 3053WAT     H2 9562   0.016   1.743   3.523
 3054WAT      O 9563   4.576   7.045   2.903
 3054WAT     H1 9564   4.666   7.033   2.873
 3054WAT     H2 9565   4.532   6.964   2.878
 3055WAT      O 9566   6.537   1.263   5.343
 3055WAT     H1 9567   6.472   1.327   5.371
 3055WAT     H2 9568   6.586   1.307   5.273
 3056WAT      O 9569   1.012   3.597   1.282
 3056WAT     H1 9570   1.050   3.683   1.297
 3056WAT     H2 9571   0.997   3.593   1.188
 3057WAT      O 9572   0.088   3.073   2.342
 3057WAT     H1 9573   0.084   2.995   2.397
 3057WAT     H2 9574   0.041   3.140   2.391
 3058WAT      O 9575   3.508   3.912   3.770
 3058WAT     H1 9576   3.463   3.971   3.709
 3058WAT     H2 9577   3.445   3.841   3.785
 3059WAT      O 9578   4.667   0.022   5.643
 3059WAT     H1 9579   4.675  -0.065   5.603
 3059WAT     H2 9580   4.596   0.064   5.595
 3060WAT      O 9581   6.946   0.178   4.879
 3060WAT     H1 9582   6.972   0.206   4.791
 3060WAT     H2 9583   6.954   0.082   4.877
 3061WAT      O 9584   6.304   1.433   5.059
 3061WAT     H1 9585   6.214   1.420   5.027
 3061WAT     H2 9586   6.300   1.408   5.151
 3062WAT      O 9587   3.948   1.009   2.606
 3062WAT     H1 9588   3.941   0.917   2.631
 3062WAT     H2 9589   3.949   1.057   2.688
 3063WAT      O 9590   0.400   4.955   0.078
 3063WAT     H1 9591   0.494   4.939   0.064
 3063WAT     H2 9592   0.361   4.868   0.077
 3064WAT      O 9593   5.729   3.676   5.731
 3064WAT     H1 9594   5.685   3.737   5.791
 3064WAT     H2 9595   5.659   3.641   5.676
 3065WAT      O 9596   5.270   2.930   4.354
 3065WAT     H1 9597   5.288   2.881   4.274
 3065WAT     H2 9598   5.307   3.017   4.339
 3066WAT      O 9599   3.696   5.983   6.107
 3066WAT     H1 9600   3.622   5.924   6.121
 3066WAT     H2 9601   3.751   5.972   6.184
 3067WAT      O 9602   3.700   0.803   5.331
 3067WAT     H1 9603   3.636   0.846   5.388
 3067WAT     H2 9604   3.709   0.863   5.256
 3068WAT      O 9605   1.247   4.470   0.810
 3068WAT     H1 9606   1.202   4.386   0.819
 3068WAT     H2 9607   1.305   4.473   0.886
 3069WAT      O 9608   4.639   2.023   4.085
 3069WAT     H1 9609   4.549   2.041   4.061
 3069WAT     H2 9610   4.666   1.951   4.028
 3070WAT      O 9611   1.809   2.923   1.500
 3070WAT     H1 9612   1.744   2.874   1.550
 3070WAT     H2 9613   1.800   2.890   1.411
 3071WAT      O 9614   6.343   0.613   0.744
 3071WAT     H1 9615   6.360   0.610   0.649
 3071WAT     H2 9616   6.367   0.701   0.770
 3072WAT      O 9617   4.939   5.336   1.233
 3072WAT     H1 9618   4.977   5.248   1.237
 3072WAT     H2 9619   4.991   5.382   1.168
 3073WAT      O 9620   0.244   6.964   0.894
 3073WAT     H1 9621   0.187   6.933   0.824
 3073WAT     H2 9622   0.313   6.898   0.900
 3074WAT      O 9623   3.606   7.052   1.443
 3074WAT     H1 9624   3.566   7.026   1.526
 3074WAT     H2 9625   3.553   7.009   1.376
 3075WAT      O 9626   5.589   0.464   2.779
 3075WAT     H1 9627   5.590   0.555   2.751
 3075WAT     H2 9628   5.639   0.417   2.711
 3076WAT      O 9629   5.177   5.463   2.103
 3076WAT     H1 9630   5.181   5.375   2.067
 3076WAT     H2 9631   5.114   5.509   2.047
 3077WAT      O 9632   1.027   0.140   5.707
 3077WAT     H1 9633   1.092   0.149   5.776
 3077WAT     H2 9634   1.068   0.083   5.642
 3078WAT      O 9635   0.696   0.299   1.133
 3078WAT     H1 9636   0.786   0.306   1.102
 3078WAT     H2 9637   0.700   0.242   1.209
 3079WAT      O 9638   3.024   3.869   5.296
 3079WAT     H1 9639   3.018   3.955   5.254
 3079WAT     H2 9640   2.940   3.828   5.277
 3080WAT      O 9641   3.627   5.805   4.012
 3080WAT     H1 9642   3.683   5.864   4.062
 3080WAT     H2 9643   3.665   5.805   3.924
 3081WAT      O 9644   5.587   1.431   3.195
 3081WAT     H1 9645   5.507   1.427   3.142
 3081WAT     H2 9646   5.571   1.369   3.266
 3082WAT      O 9647   2.554   1.593   5.044
 3082WAT     H1 9648   2.476   1.583   4.989
 3082WAT     H2 9649   2.618   1.635   4.986
 3083WAT      O 9650   6.624   4.959   4.281
 3083WAT     H1 9651   6.535   4.944   4.312
 3083WAT     H2 9652   6.673   4.881   4.308
 3084WAT      O 9653   4.209   6.774   0.537
 3084WAT     H1 9654   4.291   6.758   0.491
 3084WAT     H2 9655   4.236   6.789   0.628
 3085WAT      O 9656   7.452   3.595   4.418
 3085WAT     H1 9657   7.481   3.545   4.343
 3085WAT     H2 9658   7.427   3.681   4.383
 3086WAT      O 9659   0.254   6.969   5.214
 3086WAT     H1 9660   0.211   7.048   5.180
 3086WAT     H2 9661   0.192   6.935   5.279
 3087WAT      O 9662   1.520   1.644   4.959
 3087WAT     H1 9663   1.498   1.674   4.871
 3087WAT     H2 9664   1.436   1.629   5.002
 3088WAT      O 9665   1.279   2.608   1.970
 3088WAT     H1 9666   1.246   2.685   2.016
 3088WAT     H2 9667   1.204   2.548   1.968
 3089WAT      O 9668   2.500   5.556   1.128
 3089WAT     H1 9669   2.445   5.494   1.082
 3089WAT     H2 9670   2.439   5.616   1.171
 3090WAT      O 9671   3.907   5.236   0.848
 3090WAT     H1 9672   3.899   5.289   0.927
 3090WAT     H2 9673   3.839   5.270   0.789
 3091WAT      O 9674   4.065   3.143   6.062
 3091WAT     H1 9675   4.025   3.199   5.996
 3091WAT     H2 9676   4.122   3.084   6.013
 3092WAT      O 9677   0.177   1.750   2.872
 3092WAT     H1 9678   0.118   1.686   2.830
 3092WAT     H2 9679   0.173   1.827   2.815
 3093WAT      O 9680   5.670   6.529   5.717
 3093WAT     H1 9681   5.672   6.444   5.672
 3093WAT     H2 9682   5.627   6.587   5.654
 3094WAT      O 9683   4.644   0.931   1.514
 3094WAT     H1 9684   4.560   0.927   1.469
 3094WAT     H2 9685   4.706   0.959   1.447
 3095WAT      O 9686   7.269   3.453   4.663
 3095WAT     H1 9687   7.259   3.377   4.605
 3095WAT     H2 9688   7.323   3.514   4.613
 3096WAT      O 9689   0.624   1.531   0.259
 3096WAT     H1 9690   0.710   1.509   0.221
 3096WAT     H2 9691   0.561   1.503   0.192
 3097WAT      O 9692   4.883   3.048   4.942
 3097WAT     H1 9693   4.831   3.020   5.016
 3097WAT     H2 9694   4.826   3.035   4.866
 3098WAT      O 9695   6.959   6.517   5.350
 3098WAT     H1 9696   6.896   6.482   5.288
 3098WAT     H2 9697   6.945   6.467   5.430
 3099WAT      O 9698   7.520   4.000   4.308
 3099WAT     H1 9699   7.447   4.025   4.251
 3099WAT     H2 9700   7.483   4.003   4.396
 3100WAT      O 9701   3.186   5.142   5.792
 3100WAT     H1 9702   3.129   5.085   5.844
 3100WAT     H2 9703   3.152   5.230   5.809
 3101WAT      O 9704   2.676   4.378   3.420
 3101WAT     H1 9705   2.640   4.332   3.496
 3101WAT     H2 9706   2.601   4.388   3.361
 3102WAT      O 9707   6.144   7.124   0.701
 3102WAT     H1 9708   6.195   7.057   0.747
 3102WAT     H2 9709   6.134   7.090   0.612
 3103WAT      O 9710   0.193   3.158   0.421
 3103WAT     H1 9711   0.110   3.168   0.374
 3103WAT     H2 9712   0.225   3.248   0.431
 3104WAT      O 9713   2.151   6.369   2.674
 3104WAT     H1 9714   2.187   6.371   2.585
 3104WAT     H2 9715   2.170   6.456   2.709
 3105WAT      O 9716   1.727   4.248   4.794
 3105WAT     H1 9717   1.822   4.240   4.783
 3105WAT     H2 9718   1.691   4.227   4.708
 3106WAT      O 9719   1.185   1.267   2.610
 3106WAT     H1 9720   1.251   1.332   2.632
 3106WAT     H2 9721   1.110   1.289   2.665
 3107WAT      O 9722   6.331   0.825   4.352
 3107WAT     H1 9723   6.249   0.867   4.328
 3107WAT     H2 9724   6.386   0.831   4.274
 3108WAT      O 9725   5.672   0.028   0.658
 3108WAT     H1 9726   5.644  -0.039   0.594
 3108WAT     H2 9727   5.622   0.106   0.635
 3109WAT      O 9728   5.582   0.438   1.542
 3109WAT     H1 9729   5.635   0.509   1.577
 3109WAT     H2 9730   5.593   0.445   1.447
 3110WAT      O 9731   0.614   4.244   5.814
 3110WAT     H1 9732   0.641   4.282   5.730
 3110WAT     H2 9733   0.523   4.219   5.801
 3111WAT      O 9734   1.166   0.276   4.411
 3111WAT     H1 9735   1.083   0.240   4.442
 3111WAT     H2 9736   1.142   0.356   4.365
 3112WAT      O 9737   5.189   0.894   1.920
 3112WAT     H1 9738   5.202   0.955   1.847
 3112WAT     H2 9739   5.096   0.871   1.916
 3113WAT      O 9740   1.428   0.417   0.019
 3113WAT     H1 9741   1.507   0.380   0.058
 3113WAT     H2 9742   1.364   0.419   0.090
 3114WAT      O 9743   1.561   4.460   2.273
 3114WAT     H1 9744   1.487   4.465   2.212
 3114WAT     H2 9745   1.628   4.516   2.234
 3115WAT      O 9746   0.211   0.553   3.718
 3115WAT     H1 9747   0.175   0.601   3.792
 3115WAT     H2 9748   0.137   0.538   3.659
 3116WAT      O 9749   1.948   6.049   1.600
 3116WAT     H1 9750   1.981   6.105   1.530
 3116WAT     H2 9751   1.893   5.985   1.555
 3117WAT      O 9752   3.673   4.182   1.467
 3117WAT     H1 9753   3.764   4.210   1.479
 3117WAT     H2 9754   3.678   4.111   1.403
 3118WAT      O 9755   0.529   5.287   1.146
 3118WAT     H1 9756   0.508   5.243   1.229
 3118WAT     H2 9757   0.518   5.380   1.164
 3119WAT      O 9758   5.127   0.374   0.534
 3119WAT     H1 9759   5.203   0.362   0.590
 3119WAT     H2 9760   5.161   0.367   0.445
 3120WAT      O 9761   4.021   6.899   4.969
 3120WAT     H1 9762   4.054   6.811   4.955
 3120WAT     H2 9763   4.031   6.913   5.064
 3121WAT      O 9764   3.882   3.182   4.592
 3121WAT     H1 9765   3.949   3.157   4.656
 3121WAT     H2 9766   3.886   3.277   4.589
 3122WAT      O 9767   6.132   0.480   4.217
 3122WAT     H1 9768   6.202   0.414   4.213
 3122WAT     H2 9769   6.156   0.544   4.150
 3123WAT      O 9770   1.805   0.555   3.564
 3123WAT     H1 9771   1.810   0.543   3.469
 3123WAT     H2 9772   1.766   0.474   3.596
 3124WAT      O 9773   0.633   4.006   3.279
 3124WAT     H1 9774   0.691   4.045   3.344
 3124WAT     H2 9775   0.687   3.940   3.235
 3125WAT      O 9776   5.861   4.567   5.453
 3125WAT     H1 9777   5.873   4.472   5.460
 3125WAT     H2 9778   5.819   4.580   5.368
 3126WAT      O 9779   3.783   5.652   2.948
 3126WAT     H1 9780   3.796   5.629   2.856
 3126WAT     H2 9781   3.800   5.570   2.995
 3127WAT      O 9782   6.167   4.209   4.336
 3127WAT     H1 9783   6.109   4.216   4.260
 3127WAT     H2 9784   6.208   4.296   4.342
 3128WAT      O 9785   2.611   4.852   1.198
 3128WAT     H1 9786   2.566   4.769   1.211
 3128WAT     H2 9787   2.703   4.832   1.214
 3129WAT      O 9788   1.704   4.415   5.283
 3129WAT     H1 9789   1.739   4.424   5.194
 3129WAT     H2 9790   1.690   4.321   5.293
 3130WAT      O 9791   3.006   3.475   2.516
 3130WAT     H1 9792   2.958   3.403   2.558
 3130WAT     H2 9793   3.098   3.449   2.523
 3131WAT      O 9794   3.227   2.386   2.089
 3131WAT     H1 9795   3.211   2.405   2.181
 3131WAT     H2 9796   3.298   2.322   2.089
 3132WAT      O 9797   5.722   2.187   0.204
 3132WAT     H1 9798   5.721   2.282   0.207
 3132WAT     H2 9799   5.655   2.164   0.140
 3133WAT      O 9800   5.772   0.324   2.577
 3133WAT     H1 9801   5.858   0.287   2.599
 3133WAT     H2 9802   5.709   0.261   2.610
 3134WAT      O 9803   5.820   2.690   2.979
 3134WAT     H1 9804   5.780   2.689   3.066
 3134WAT     H2 9805   5.854   2.601   2.968
 3135WAT      O 9806   6.314   2.063   4.789
 3135WAT     H1 9807   6.321   2.022   4.875
 3135WAT     H2 9808   6.403   2.093   4.769
 3136WAT      O 9809   2.190   2.576   5.082
 3136WAT     H1 9810   2.269   2.540   5.124
 3136WAT     H2 9811   2.118   2.528   5.122
 3137WAT      O 9812   0.454   0.397   3.005
 3137WAT     H1 9813   0.470   0.491   2.998
 3137WAT     H2 9814   0.453   0.366   2.914
 3138WAT      O 9815   1.573   1.342   0.097
 3138WAT     H1 9816   1.644   1.404   0.116
 3138WAT     H2 9817   1.617   1.259   0.081
 3139WAT      O 9818   2.247   3.785   5.567
 3139WAT     H1 9819   2.327   3.828   5.539
 3139WAT     H2 9820   2.233   3.716   5.502
 3140WAT      O 9821   6.717   0.801   2.578
 3140WAT     H1 9822   6.655   0.733   2.550
 3140WAT     H2 9823   6.788   0.796   2.513
 3141WAT      O 9824   0.925   2.822   2.110
 3141WAT     H1 9825   0.904   2.861   2.025
 3141WAT     H2 9826   0.857   2.855   2.169
 3142WAT      O 9827   2.387   3.807   1.340
 3142WAT     H1 9828   2.393   3.881   1.278
 3142WAT     H2 9829   2.461   3.820   1.399
 3143WAT      O 9830   3.826   3.283   3.437
 3143WAT     H1 9831   3.779   3.250   3.514
 3143WAT     H2 9832   3.756   3.316   3.379
 3144WAT      O 9833   5.904   2.339   2.501
 3144WAT     H1 9834   5.943   2.376   2.580
 3144WAT     H2 9835   5.813   2.369   2.503
 3145WAT      O 9836   3.508   0.106   5.457
 3145WAT     H1 9837   3.465   0.168   5.516
 3145WAT     H2 9838   3.592   0.146   5.436
 3146WAT      O 9839   0.355   2.061   3.219
 3146WAT     H1 9840   0.333   1.976   3.256
 3146WAT     H2 9841   0.349   2.048   3.124
 3147WAT      O 9842   1.878   3.152   4.229
 3147WAT     H1 9843   1.967   3.184   4.244
 3147WAT     H2 9844   1.886   3.088   4.158
 3148WAT      O 9845   3.831   3.740   0.081
 3148WAT     H1 9846   3.854   3.800   0.010
 3148WAT     H2 9847   3.793   3.795   0.148
 3149WAT      O 9848   4.800   5.245   5.041
 3149WAT     H1 9849   4.712   5.283   5.042
 3149WAT     H2 9850   4.789   5.157   5.076
 3150WAT      O 9851   0.240   6.051   2.956
 3150WAT     H1 9852   0.170   6.081   3.013
 3150WAT     H2 9853   0.255   6.124   2.896
 3151WAT      O 9854   2.637   0.796   6.084
 3151WAT     H1 9855   2.585   0.840   6.017
 3151WAT     H2 9856   2.584   0.722   6.112
 3152WAT      O 9857   4.833   6.501   1.770
 3152WAT     H1 9858   4.745   6.522   1.799
 3152WAT     H2 9859   4.824   6.422   1.717
 3153WAT      O 9860   5.401   6.711   5.014
 3153WAT     H1 9861   5.365   6.623   5.015
 3153WAT     H2 9862   5.487   6.702   4.973
 3154WAT      O 9863   3.413   2.649   4.760
 3154WAT     H1 9864   3.427   2.723   4.700
 3154WAT     H2 9865   3.434   2.572   4.707
 3155WAT      O 9866   0.083   1.448   4.053
 3155WAT     H1 9867   0.101   1.453   4.147
 3155WAT     H2 9868   0.165   1.414   4.015
 3156WAT      O 9869   2.580   5.879   3.237
 3156WAT     H1 9870   2.647   5.869   3.169
 3156WAT     H2 9871   2.579   5.795   3.282
 3157WAT      O 9872   2.385   2.817   2.705
 3157WAT     H1 9873   2.369   2.856   2.619
 3157WAT     H2 9874   2.350   2.881   2.767
 3158WAT      O 9875   6.001   6.998   1.202
 3158WAT     H1 9876   6.009   7.076   1.256
 3158WAT     H2 9877   6.083   6.951   1.215
 3159WAT      O 9878   1.569   3.487   1.039
 3159WAT     H1 9879   1.647   3.474   1.093
 3159WAT     H2 9880   1.591   3.449   0.954
 3160WAT      O 9881   5.398   4.276   3.602
 3160WAT     H1 9882   5.461   4.206   3.586
 3160WAT     H2 9883   5.413   4.338   3.531
 3161WAT      O 9884   3.440   0.498   3.241
 3161WAT     H1 9885   3.350   0.522   3.219
 3161WAT     H2 9886   3.435   0.405   3.265
 3162WAT      O 9887   6.200   1.153   5.077
 3162WAT     H1 9888   6.245   1.133   5.159
 3162WAT     H2 9889   6.112   1.180   5.105
 3163WAT      O 9890   0.342   3.742   4.041
 3163WAT     H1 9891   0.434   3.746   4.067
 3163WAT     H2 9892   0.332   3.653   4.006
 3164WAT      O 9893   5.732   7.103   2.170
 3164WAT     H1 9894   5.643   7.071   2.156
 3164WAT     H2 9895   5.773   7.100   2.084
 3165WAT      O 9896   7.375   0.164   3.261
 3165WAT     H1 9897   7.395   0.116   3.181
 3165WAT     H2 9898   7.391   0.256   3.239
 3166WAT      O 9899   1.515   4.050   6.026
 3166WAT     H1 9900   1.556   3.964   6.017
 3166WAT     H2 9901   1.428   4.031   6.062
 3167WAT      O 9902   0.889   0.124   1.566
 3167WAT     H1 9903   0.965   0.118   1.508
 3167WAT     H2 9904   0.815   0.096   1.511
 3168WAT      O 9905   7.088   1.138   1.422
 3168WAT     H1 9906   7.137   1.081   1.482
 3168WAT     H2 9907   7.054   1.208   1.478
 3169WAT      O 9908   2.491   5.716   4.740
 3169WAT     H1 9909   2.533   5.646   4.790
 3169WAT     H2 9910   2.411   5.677   4.706
 3170WAT      O 9911   1.108   0.349   3.626
 3170WAT     H1 9912   1.050   0.396   3.566
 3170WAT     H2 9913   1.189   0.400   3.624
 3171WAT      O 9914   5.783   3.225   4.985
 3171WAT     H1 9915   5.872   3.260   4.983
 3171WAT     H2 9916   5.746   3.248   4.900
 3172WAT      O 9917   6.121   3.972   5.728
 3172WAT     H1 9918   6.069   3.963   5.648
 3172WAT     H2 9919   6.108   3.889   5.775
 3173WAT      O 9920   5.163   6.585   3.648
 3173WAT     H1 9921   5.108   6.568   3.573
 3173WAT     H2 9922   5.198   6.673   3.633
 3174WAT      O 9923   4.589   5.588   3.040
 3174WAT     H1 9924   4.600   5.603   2.947
 3174WAT     H2 9925   4.545   5.503   3.045
 3175WAT      O 9926   2.676   3.975   0.317
 3175WAT     H1 9927   2.704   4.059   0.279
 3175WAT     H2 9928   2.582   3.973   0.303
 3176WAT      O 9929   5.881   0.790   4.050
 3176WAT     H1 9930   5.856   0.870   4.003
 3176WAT     H2 9931   5.866   0.811   4.142
 3177WAT      O 9932   7.599   5.543   5.553
 3177WAT     H1 9933   7.514   5.501   5.543
 3177WAT     H2 9934   7.603   5.568   5.646
 3178WAT      O 9935   1.558   1.135   2.289
 3178WAT     H1 9936   1.554   1.204   2.222
 3178WAT     H2 9937   1.495   1.163   2.355
 3179WAT      O 9938   5.353   4.484   0.643
 3179WAT     H1 9939   5.355   4.550   0.573
 3179WAT     H2 9940   5.445   4.468   0.664
 3180WAT      O 9941   2.424   0.653   3.045
 3180WAT     H1 9942   2.403   0.662   2.952
 3180WAT     H2 9943   2.387   0.568   3.070
 3181WAT      O 9944   3.971   6.545   4.389
 3181WAT     H1 9945   3.934   6.467   4.347
 3181WAT     H2 9946   4.064   6.544   4.364
 3182WAT      O 9947   5.499   6.516   6.052
 3182WAT     H1 9948   5.589   6.501   6.079
 3182WAT     H2 9949   5.500   6.506   5.957
 3183WAT      O 9950   6.327   2.712   0.077
 3183WAT     H1 9951   6.408   2.661   0.082
 3183WAT     H2 9952   6.333   2.759  -0.006
 3184WAT      O 9953   4.812   1.109   2.100
 3184WAT     H1 9954   4.815   1.181   2.038
 3184WAT     H2 9955   4.720   1.101   2.124
 3185WAT      O 9956   3.821   3.591   3.519
 3185WAT     H1 9957   3.869   3.510   3.537
 3185WAT     H2 9958   3.737   3.579   3.564
 3186WAT      O 9959   2.527   2.079   1.418
 3186WAT     H1 9960   2.587   2.113   1.352
 3186WAT     H2 9961   2.506   1.991   1.388
 3187WAT      O 9962   6.569   4.673   2.191
 3187WAT     H1 9963   6.505   4.601   2.193
 3187WAT     H2 9964   6.517   4.750   2.167
 3188WAT      O 9965   6.285   0.293   5.958
 3188WAT     H1 9966   6.302   0.213   6.007
 3188WAT     H2 9967   6.368   0.311   5.913
 3189WAT      O 9968   7.091   6.185   3.646
 3189WAT     H1 9969   7.049   6.157   3.565
 3189WAT     H2 9970   7.153   6.115   3.666
 3190WAT      O 9971   5.433   1.371   2.549
 3190WAT     H1 9972   5.451   1.282   2.519
 3190WAT     H2 9973   5.417   1.420   2.468
 3191WAT      O 9974   6.902   2.174   3.011
 3191WAT     H1 9975   6.947   2.122   2.945
 3191WAT     H2 9976   6.901   2.263   2.974
 3192WAT      O 9977   7.512   6.356   0.413
 3192WAT     H1 9978   7.595   6.404   0.404
 3192WAT     H2 9979   7.539   6.264   0.418
 3193WAT      O 9980   4.193   6.495   1.832
 3193WAT     H1 9981   4.135   6.444   1.889
 3193WAT     H2 9982   4.146   6.499   1.748
 3194WAT      O 9983   6.783   5.388   6.128
 3194WAT     H1 9984   6.799   5.317   6.065
 3194WAT     H2 9985   6.821   5.466   6.087
 3195WAT      O 9986   2.805   5.055   0.595
 3195WAT     H1 9987   2.782   5.035   0.504
 3195WAT     H2 9988   2.795   4.972   0.641
 3196WAT      O 9989   5.065   6.476   4.449
 3196WAT     H1 9990   5.083   6.512   4.362
 3196WAT     H2 9991   4.983   6.517   4.475
 3197WAT      O 9992   0.980   2.232   0.520
 3197WAT     H1 9993   0.912   2.177   0.482
 3197WAT     H2 9994   1.016   2.179   0.591
 3198WAT      O 9995   3.855   4.520   4.371
 3198WAT     H1 9996   3.860   4.577   4.294
 3198WAT     H2 9997   3.873   4.578   4.445
 3199WAT      O 9998   1.595   6.168   1.224
 3199WAT     H1 9999   1.664   6.114   1.186
 3199WAT     H210000   1.536   6.106   1.267
 3200WAT      O10001   6.461   2.405   4.723
 3200WAT     H110002   6.434   2.421   4.633
 3200WAT     H210003   6.544   2.452   4.732
 3201WAT      O10004   2.698   3.715   4.400
 3201WAT     H110005   2.779   3.762   4.421
 3201WAT     H210006   2.727   3.642   4.346
 3202WAT      O10007   5.083   2.938   0.925
 3202WAT     H110008   5.144   3.010   0.939
 3202WAT     H210009   5.006   2.962   0.978
 3203WAT      O10010   0.677   3.139   3.882
 3203WAT     H110011   0.667   3.044   3.888
 3203WAT     H210012   0.629   3.163   3.802
 3204WAT      O10013   7.442   2.269   1.116
 3204WAT     H110014   7.358   2.311   1.134
 3204WAT     H210015   7.445   2.261   1.020
 3205WAT      O10016   1.553   5.107   0.021
 3205WAT     H110017   1.472   5.056   0.029
 3205WAT     H210018   1.572   5.107  -0.073
 3206WAT      O10019   5.466   0.752   6.004
 3206WAT     H110020   5.501   0.828   5.958
 3206WAT     H210021   5.372   0.757   5.991
 3207WAT      O10022   4.100   0.940   5.831
 3207WAT     H110023   4.086   1.006   5.899
 3207WAT     H210024   4.179   0.970   5.786
 3208WAT      O10025   5.554   1.337   5.192
 3208WAT     H110026   5.526   1.282   5.119
 3208WAT     H210027   5.485   1.326   5.258
 3209WAT      O10028   1.982   3.406   1.622
 3209WAT     H110029   1.940   3.384   1.705
 3209WAT     H210030   1.910   3.429   1.564
 3210WAT      O10031   2.906   6.960   0.356
 3210WAT     H110032   2.986   7.007   0.382
 3210WAT     H210033   2.937   6.874   0.330
 3211WAT      O10034   7.513   7.082   1.490
 3211WAT     H110035   7.579   7.137   1.449
 3211WAT     H210036   7.531   6.994   1.458
 3212WAT      O10037   0.794   6.584   5.323
 3212WAT     H110038   0.722   6.611   5.267
 3212WAT     H210039   0.752   6.535   5.394
 3213WAT      O10040   6.369   4.309   2.739
 3213WAT     H110041   6.280   4.333   2.710
 3213WAT     H210042   6.402   4.252   2.669
 3214WAT      O10043   3.882   6.506   4.003
 3214WAT     H110044   3.851   6.581   4.053
 3214WAT     H210045   3.866   6.529   3.912
 3215WAT      O10046   4.751   5.540   1.304
 3215WAT     H110047   4.786   5.475   1.243
 3215WAT     H210048   4.778   5.624   1.267
 3216WAT      O10049   4.540   5.897   4.196
 3216WAT     H110050   4.613   5.953   4.168
 3216WAT     H210051   4.501   5.867   4.114
 3217WAT      O10052   4.484   4.179   4.316
 3217WAT     H110053   4.521   4.143   4.236
 3217WAT     H210054   4.548   4.243   4.346
 3218WAT      O10055   1.402   7.104   3.465
 3218WAT     H110056   1.487   7.072   3.434
 3218WAT     H210057   1.422   7.147   3.548
 3219WAT      O10058   4.612   0.073   4.366
 3219WAT     H110059   4.701   0.044   4.346
 3219WAT     H210060   4.556   0.001   4.337
 3220WAT      O10061   7.052   6.713   0.901
 3220WAT     H110062   7.071   6.683   0.812
 3220WAT     H210063   6.962   6.687   0.917
 3221WAT      O10064   1.015   6.529   0.140
 3221WAT     H110065   1.057   6.552   0.056
 3221WAT     H210066   0.922   6.528   0.120
 3222WAT      O10067   0.527   2.486   1.268
 3222WAT     H110068   0.566   2.500   1.182
 3222WAT     H210069   0.435   2.466   1.250
 3223WAT      O10070   0.352   6.341   5.263
 3223WAT     H110071   0.405   6.387   5.198
 3223WAT     H210072   0.283   6.298   5.211
 3224WAT      O10073   4.903   7.085   3.066
 3224WAT     H110074   4.888   7.056   2.977
 3224WAT     H210075   4.816   7.086   3.107
 3225WAT      O10076   6.453   4.349   0.433
 3225WAT     H110077   6.480   4.261   0.459
 3225WAT     H210078   6.406   4.336   0.350
 3226WAT      O10079   3.980   3.818   2.474
 3226WAT     H110080   3.895   3.785   2.445
 3226WAT     H210081   3.959   3.893   2.531
 3227WAT      O10082   1.375   2.804   1.359
 3227WAT     H110083   1.427   2.738   1.312
 3227WAT     H210084   1.416   2.888   1.336
 3228WAT      O10085   5.401   2.503   4.783
 3228WAT     H110086   5.321   2.459   4.810
 3228WAT     H210087   5.420   2.468   4.696
 3229WAT      O10088   0.126   6.053   2.375
 3229WAT     H110089   0.032   6.071   2.366
 3229WAT     H210090   0.167   6.111   2.310
 3230WAT      O10091   1.011   5.880   0.643
 3230WAT     H110092   1.056   5.796   0.635
 3230WAT     H210093   0.935   5.872   0.585
 3231WAT      O10094   3.959   3.384   0.961
 3231WAT     H110095   3.992   3.418   0.877
 3231WAT     H210096   3.864   3.401   0.957
 3232WAT      O10097   3.153   4.011   1.588
 3232WAT     H110098   3.090   3.941   1.575
 3232WAT     H210099   3.192   4.024   1.501
 3233WAT      O10100   2.523   4.439   4.681
 3233WAT     H110101   2.571   4.430   4.599
 3233WAT     H210102   2.489   4.529   4.679
 3234WAT      O10103   0.263   1.701   1.575
 3234WAT     H110104   0.330   1.760   1.610
 3234WAT     H210105   0.311   1.620   1.555
 3235WAT      O10106   1.444   2.374   1.773
 3235WAT     H110107   1.407   2.365   1.684
 3235WAT     H210108   1.400   2.451   1.809
 3236WAT      O10109   6.392   4.202   1.573
 3236WAT     H110110   6.297   4.205   1.584
 3236WAT     H210111   6.405   4.204   1.479
 3237WAT      O10112   0.978   4.010   2.542
 3237WAT     H110113   0.899   4.062   2.527
 3237WAT     H210114   0.948   3.935   2.593
 3238WAT      O10115   7.376   5.947   5.372
 3238WAT     H110116   7.402   5.897   5.450
 3238WAT     H210117   7.389   5.887   5.299
 3239WAT      O10118   6.256   5.067   1.237
 3239WAT     H110119   6.320   5.139   1.241
 3239WAT     H210120   6.252   5.043   1.145
 3240WAT      O10121   4.626   3.918   4.924
 3240WAT     H110122   4.667   4.005   4.927
 3240WAT     H210123   4.667   3.875   4.850
 3241WAT      O10124   1.890   2.562   5.102
 3241WAT     H110125   1.846   2.497   5.047
 3241WAT     H210126   1.857   2.545   5.190
 3242WAT      O10127   1.322   3.967   2.893
 3242WAT     H110128   1.300   4.025   2.820
 3242WAT     H210129   1.418   3.968   2.895
 3243WAT      O10130   3.768   3.361   6.224
 3243WAT     H110131   3.700   3.412   6.267
 3243WAT     H210132   3.743   3.360   6.131
 3244WAT      O10133   1.806   2.384   2.029
 3244WAT     H110134   1.775   2.333   1.954
 3244WAT     H210135   1.726   2.413   2.073
 3245WAT      O10136   0.824   2.535   4.171
 3245WAT     H110137   0.752   2.568   4.117
 3245WAT     H210138   0.870   2.613   4.201
 3246WAT      O10139   6.880   0.003   5.303
 3246WAT     H110140   6.822  -0.054   5.254
 3246WAT     H210141   6.939   0.040   5.237
 3247WAT      O10142   6.145   1.829   0.424
 3247WAT     H110143   6.188   1.903   0.467
 3247WAT     H210144   6.205   1.804   0.354
 3248WAT      O10145   0.029   2.319   4.073
 3248WAT     H110146   0.007   2.344   3.983
 3248WAT     H210147   0.010   2.396   4.125
 3249WAT      O10148   2.639   1.785   2.456
 3249WAT     H110149   2.563   1.842   2.442
 3249WAT     H210150   2.630   1.717   2.389
 3250WAT      O10151   1.763   0.118   4.983
 3250WAT     H110152   1.729   0.041   5.029
 3250WAT     H210153   1.686   0.169   4.960
 3251WAT      O10154   3.790   0.859   2.947
 3251WAT     H110155   3.769   0.877   3.039
 3251WAT     H210156   3.813   0.766   2.946
 3252WAT      O10157   2.134   1.499   2.735
 3252WAT     H110158   2.067   1.567   2.734
 3252WAT     H210159   2.195   1.524   2.665
 3253WAT      O10160   0.241   1.784   4.809
 3253WAT     H110161   0.205   1.858   4.759
 3253WAT     H210162   0.207   1.707   4.764
 3254WAT      O10163   0.825   0.393   3.316
 3254WAT     H110164   0.897   0.441   3.358
 3254WAT     H210165   0.868   0.323   3.267
 3255WAT      O10166   3.804   5.018   6.059
 3255WAT     H110167   3.817   5.107   6.091
 3255WAT     H210168   3.889   4.975   6.073
 3256WAT      O10169   2.815   0.313   4.597
 3256WAT     H110170   2.865   0.304   4.516
 3256WAT     H210171   2.881   0.327   4.665
 3257WAT      O10172   6.450   0.908   2.292
 3257WAT     H110173   6.362   0.934   2.264
 3257WAT     H210174   6.468   0.966   2.366
 3258WAT      O10175   7.324   0.090   5.239
 3258WAT     H110176   7.345   0.041   5.159
 3258WAT     H210177   7.288   0.024   5.298
 3259WAT      O10178   6.823   7.052   3.762
 3259WAT     H110179   6.892   7.005   3.809
 3259WAT     H210180   6.765   7.083   3.831
 3260WAT      O10181   1.317   0.458   5.670
 3260WAT     H110182   1.251   0.495   5.612
 3260WAT     H210183   1.337   0.372   5.633
 3261WAT      O10184   1.051   5.729   5.044
 3261WAT     H110185   1.027   5.791   4.975
 3261WAT     H210186   0.975   5.672   5.053
 3262WAT      O10187   5.211   4.231   6.082
 3262WAT     H110188   5.127   4.185   6.087
 3262WAT     H210189   5.206   4.299   6.148
 3263WAT      O10190   3.689   5.989   2.164
 3263WAT     H110191   3.646   5.920   2.115
 3263WAT     H210192   3.624   6.060   2.169
 3264WAT      O10193   7.467   6.274   3.620
 3264WAT     H110194   7.391   6.295   3.674
 3264WAT     H210195   7.503   6.360   3.595
 3265WAT      O10196   5.704   4.380   0.293
 3265WAT     H110197   5.759   4.312   0.255
 3265WAT     H210198   5.730   4.461   0.248
 3266WAT      O10199   5.236   4.082   5.430
 3266WAT     H110200   5.248   4.129   5.512
 3266WAT     H210201   5.147   4.102   5.403
 3267WAT      O10202   2.626   5.461   4.720
 3267WAT     H110203   2.650   5.369   4.735
 3267WAT     H210204   2.704   5.500   4.682
 3268WAT      O10205   0.074   6.091   3.355
 3268WAT     H110206   0.083   6.130   3.268
 3268WAT     H210207  -0.021   6.079   3.366
 3269WAT      O10208   6.011   4.558   2.078
 3269WAT     H110209   5.924   4.592   2.100
 3269WAT     H210210   6.043   4.616   2.009
 3270WAT      O10211   5.307   2.758   2.565
 3270WAT     H110212   5.303   2.662   2.554
 3270WAT     H210213   5.277   2.792   2.481
 3271WAT      O10214   7.034   5.286   3.959
 3271WAT     H110215   7.072   5.330   3.883
 3271WAT     H210216   7.077   5.201   3.961
 3272WAT      O10217   5.657   5.996   1.159
 3272WAT     H110218   5.695   5.990   1.247
 3272WAT     H210219   5.725   5.960   1.101
 3273WAT      O10220   7.039   2.265   5.140
 3273WAT     H110221   7.067   2.195   5.081
 3273WAT     H210222   6.960   2.301   5.099
 3274WAT      O10223   6.185   5.974   0.629
 3274WAT     H110224   6.119   5.948   0.564
 3274WAT     H210225   6.243   5.898   0.636
 3275WAT      O10226   3.691   3.932   1.804
 3275WAT     H110227   3.768   3.915   1.858
 3275WAT     H210228   3.682   4.027   1.804
 3276WAT      O10229   1.519   0.194   0.304
 3276WAT     H110230   1.515   0.116   0.249
 3276WAT     H210231   1.606   0.191   0.344
 3277WAT      O10232   4.299   4.254   5.747
 3277WAT     H110233   4.347   4.173   5.727
 3277WAT     H210234   4.213   4.225   5.776
 3278WAT      O10235   5.489   5.977   5.362
 3278WAT     H110236   5.480   5.974   5.267
 3278WAT     H210237   5.446   5.897   5.393
 3279WAT      O10238   6.128   5.438   4.485
 3279WAT     H110239   6.215   5.397   4.481
 3279WAT     H210240   6.135   5.503   4.555
 3280WAT      O10241   0.446   1.887   4.937
 3280WAT     H110242   0.372   1.874   4.878
 3280WAT     H210243   0.519   1.841   4.894
 3281WAT      O10244   5.062   4.722   4.761
 3281WAT     H110245   5.097   4.758   4.680
 3281WAT     H210246   5.002   4.653   4.733
 3282WAT      O10247   5.898   4.102   5.112
 3282WAT     H110248   5.853   4.025   5.077
 3282WAT     H210249   5.831   4.149   5.162
 3283WAT      O10250   7.340   2.430   1.457
 3283WAT     H110251   7.371   2.482   1.383
 3283WAT     H210252   7.269   2.482   1.494
 3284WAT      O10253   1.165   4.973   3.593
 3284WAT     H110254   1.172   5.019   3.509
 3284WAT     H210255   1.233   4.906   3.589
 3285WAT      O10256   3.828   4.882   4.455
 3285WAT     H110257   3.894   4.946   4.428
 3285WAT     H210258   3.748   4.934   4.466
 3286WAT      O10259   6.094   0.373   1.410
 3286WAT     H110260   6.036   0.441   1.377
 3286WAT     H210261   6.051   0.342   1.490
 3287WAT      O10262   3.095   0.740   4.643
 3287WAT     H110263   3.080   0.684   4.567
 3287WAT     H210264   3.048   0.821   4.623
 3288WAT      O10265   4.937   5.329   4.439
 3288WAT     H110266   4.940   5.296   4.350
 3288WAT     H210267   4.856   5.294   4.475
 3289WAT      O10268   2.353   6.940   4.729
 3289WAT     H110269   2.291   7.006   4.762
 3289WAT     H210270   2.412   6.990   4.673
 3290WAT      O10271   4.544   7.077   0.058
 3290WAT     H110272   4.623   7.129   0.071
 3290WAT     H210273   4.479   7.139   0.024
 3291WAT      O10274   3.542   0.362   1.166
 3291WAT     H110275   3.527   0.303   1.093
 3291WAT     H210276   3.622   0.410   1.143
 3292WAT      O10277   5.948   2.269   4.966
 3292WAT     H110278   5.875   2.313   4.922
 3292WAT     H210279   6.011   2.250   4.896
 3293WAT      O10280   0.266   2.148   2.647
 3293WAT     H110281   0.195   2.213   2.657
 3293WAT     H210282   0.322   2.184   2.579
 3294WAT      O10283   5.340   6.138   3.467
 3294WAT     H110284   5.397   6.147   3.543
 3294WAT     H210285   5.383   6.073   3.412
 3295WAT      O10286   4.708   5.878   5.752
 3295WAT     H110287   4.771   5.932   5.704
 3295WAT     H210288   4.707   5.794   5.705
 3296WAT      O10289   7.507   6.637   1.354
 3296WAT     H110290   7.453   6.652   1.277
 3296WAT     H210291   7.445   6.635   1.427
 3297WAT      O10292   5.658   4.841   1.061
 3297WAT     H110293   5.670   4.844   0.966
 3297WAT     H210294   5.578   4.892   1.077
 3298WAT      O10295   0.073   0.917   2.772
 3298WAT     H110296   0.073   0.822   2.788
 3298WAT     H210297   0.163   0.936   2.747
 3299WAT      O10298   6.940   0.764   3.319
 3299WAT     H110299   6.967   0.783   3.408
 3299WAT     H210300   7.011   0.711   3.283
 3300WAT      O10301   0.658   1.100   0.345
 3300WAT     H110302   0.721   1.161   0.307
 3300WAT     H210303   0.604   1.071   0.271
 3301WAT      O10304   5.933   2.946   3.831
 3301WAT     H110305   5.838   2.935   3.839
 3301WAT     H210306   5.964   2.959   3.920
 3302WAT      O10307   1.927   2.917   0.803
 3302WAT     H110308   2.001   2.877   0.757
 3302WAT     H210309   1.851   2.893   0.752
 3303WAT      O10310   6.755   3.303   6.229
 3303WAT     H110311   6.824   3.250   6.270
 3303WAT     H210312   6.784   3.313   6.139
 3304WAT      O10313   2.339   6.699   0.743
 3304WAT     H110314   2.363   6.607   0.731
 3304WAT     H210315   2.244   6.698   0.757
 3305WAT      O10316   5.484   1.761   5.340
 3305WAT     H110317   5.551   1.714   5.290
 3305WAT     H210318   5.472   1.709   5.419
 3306WAT      O10319   4.143   0.930   0.935
 3306WAT     H110320   4.222   0.937   0.988
 3306WAT     H210321   4.140   1.011   0.885
 3307WAT      O10322   5.408   4.386   2.617
 3307WAT     H110323   5.377   4.471   2.649
 3307WAT     H210324   5.342   4.360   2.553
 3308WAT      O10325   4.787   3.767   5.925
 3308WAT     H110326   4.882   3.778   5.922
 3308WAT     H210327   4.769   3.701   5.857
 3309WAT      O10328   1.585   0.287   2.013
 3309WAT     H110329   1.515   0.223   2.019
 3309WAT     H210330   1.571   0.346   2.087
 3310WAT      O10331   3.649   2.833   5.360
 3310WAT     H110332   3.597   2.758   5.331
 3310WAT     H210333   3.721   2.837   5.297
 3311WAT      O10334   0.159   1.965   1.410
 3311WAT     H110335   0.139   1.990   1.320
 3311WAT     H210336   0.209   1.884   1.402
 3312WAT      O10337   4.462   0.709   3.542
 3312WAT     H110338   4.438   0.634   3.488
 3312WAT     H210339   4.381   0.760   3.548
 3313WAT      O10340   3.062   3.249   5.962
 3313WAT     H110341   2.995   3.316   5.970
 3313WAT     H210342   3.014   3.169   5.941
 3314WAT      O10343   5.658   2.079   5.432
 3314WAT     H110344   5.742   2.039   5.409
 3314WAT     H210345   5.613   2.090   5.349
 3315WAT      O10346   2.350   3.658   3.641
 3315WAT     H110347   2.268   3.693   3.605
 3315WAT     H210348   2.417   3.691   3.581
 3316WAT      O10349   7.036   6.384   0.299
 3316WAT     H110350   7.010   6.297   0.269
 3316WAT     H210351   6.970   6.443   0.261
 3317WAT      O10352   4.400   0.377   1.199
 3317WAT     H110353   4.391   0.461   1.155
 3317WAT     H210354   4.412   0.399   1.291
 3318WAT      O10355   7.389   6.777   0.326
 3318WAT     H110356   7.316   6.811   0.275
 3318WAT     H210357   7.365   6.686   0.344
 3319WAT      O10358   7.394   3.782   2.015
 3319WAT     H110359   7.362   3.719   1.950
 3319WAT     H210360   7.331   3.855   2.010
 3320WAT      O10361   6.696   4.154   0.389
 3320WAT     H110362   6.690   4.145   0.294
 3320WAT     H210363   6.725   4.245   0.402
 3321WAT      O10364   0.008   0.075   5.302
 3321WAT     H110365  -0.054   0.024   5.354
 3321WAT     H210366  -0.047   0.140   5.258
 3322WAT      O10367   7.435   1.658   2.613
 3322WAT     H110368   7.501   1.589   2.624
 3322WAT     H210369   7.485   1.733   2.582
 3323WAT      O10370   1.052   1.180   5.161
 3323WAT     H110371   1.021   1.196   5.072
 3323WAT     H210372   1.018   1.254   5.212
 3324WAT      O10373   7.599   2.036   0.814
 3324WAT     H110374   7.608   2.049   0.719
 3324WAT     H210375   7.535   2.101   0.842
 3325WAT      O10376   3.848   2.615   1.673
 3325WAT     H110377   3.799   2.637   1.593
 3325WAT     H210378   3.939   2.612   1.645
 3326WAT      O10379   4.395   4.208   3.210
 3326WAT     H110380   4.338   4.202   3.133
 3326WAT     H210381   4.348   4.265   3.270
 3327WAT      O10382   2.529   2.617   1.711
 3327WAT     H110383   2.511   2.528   1.683
 3327WAT     H210384   2.590   2.608   1.784
 3328WAT      O10385   7.249   1.941   5.982
 3328WAT     H110386   7.214   2.016   6.030
 3328WAT     H210387   7.174   1.906   5.934
 3329WAT      O10388   2.043   2.520   3.974
 3329WAT     H110389   2.053   2.470   4.056
 3329WAT     H210390   2.109   2.483   3.916
 3330WAT      O10391   0.913   1.103   2.194
 3330WAT     H110392   0.945   1.095   2.104
 3330WAT     H210393   0.936   1.019   2.234
 3331WAT      O10394   3.360   7.043   0.253
 3331WAT     H110395   3.392   6.966   0.207
 3331WAT     H210396   3.437   7.099   0.263
 3332WAT      O10397   4.093   3.409   1.185
 3332WAT     H110398   4.075   3.494   1.225
 3332WAT     H210399   4.036   3.407   1.107
 3333WAT      O10400   4.592   6.547   2.303
 3333WAT     H110401   4.565   6.605   2.232
 3333WAT     H210402   4.668   6.590   2.342
 3334WAT      O10403   3.492   3.769   2.355
 3334WAT     H110404   3.460   3.852   2.390
 3334WAT     H210405   3.468   3.771   2.263
 3335WAT      O10406   1.212   1.998   1.420
 3335WAT     H110407   1.209   1.908   1.452
 3335WAT     H210408   1.189   1.991   1.327
 3336WAT      O10409   1.653   6.167   1.592
 3336WAT     H110410   1.700   6.092   1.555
 3336WAT     H210411   1.614   6.134   1.672
 3337WAT      O10412   0.176   1.404   1.222
 3337WAT     H110413   0.207   1.434   1.137
 3337WAT     H210414   0.149   1.313   1.207
 3338WAT      O10415   5.322   6.934   4.731
 3338WAT     H110416   5.355   7.020   4.756
 3338WAT     H210417   5.269   6.905   4.805
 3339WAT      O10418   6.256   4.325   0.640
 3339WAT     H110419   6.230   4.344   0.550
 3339WAT     H210420   6.351   4.327   0.639
 3340WAT      O10421   1.050   2.486   0.135
 3340WAT     H110422   0.979   2.438   0.093
 3340WAT     H210423   1.124   2.477   0.074
 3341WAT      O10424   5.567   6.080   4.743
 3341WAT     H110425   5.492   6.138   4.732
 3341WAT     H210426   5.628   6.108   4.675
 3342WAT      O10427   0.792   0.753   4.033
 3342WAT     H110428   0.778   0.743   4.127
 3342WAT     H210429   0.706   0.733   3.994
 3343WAT      O10430   1.749   2.800   2.081
 3343WAT     H110431   1.830   2.750   2.068
 3343WAT     H210432   1.685   2.757   2.025
 3344WAT      O10433   6.915   2.694   5.869
 3344WAT     H110434   6.886   2.646   5.792
 3344WAT     H210435   7.011   2.694   5.863
 3345WAT      O10436   0.634   5.170   5.830
 3345WAT     H110437   0.605   5.232   5.897
 3345WAT     H210438   0.563   5.169   5.766
 3346WAT      O10439   3.883   7.115   5.732
 3346WAT     H110440   3.892   7.116   5.637
 3346WAT     H210441   3.943   7.047   5.762
 3347WAT      O10442   1.433   3.761   1.851
 3347WAT     H110443   1.401   3.684   1.804
 3347WAT     H210444   1.513   3.732   1.893
 3348WAT      O10445   2.657   3.336   5.183
 3348WAT     H110446   2.624   3.312   5.096
 3348WAT     H210447   2.753   3.334   5.173
 3349WAT      O10448   7.265   0.981   3.490
 3349WAT     H110449   7.348   0.932   3.490
 3349WAT     H210450   7.253   1.007   3.399
 3350WAT      O10451   5.899   6.888   5.272
 3350WAT     H110452   5.829   6.845   5.224
 3350WAT     H210453   5.858   6.922   5.351
 3351WAT      O10454   2.728   3.817   3.708
 3351WAT     H110455   2.671   3.870   3.764
 3351WAT     H210456   2.676   3.801   3.629
 3352WAT      O10457   0.737   1.340   4.928
 3352WAT     H110458   0.683   1.282   4.982
 3352WAT     H210459   0.751   1.418   4.983
 3353WAT      O10460   7.316   3.385   5.189
 3353WAT     H110461   7.363   3.303   5.179
 3353WAT     H210462   7.286   3.406   5.100
 3354WAT      O10463   0.668   6.332   4.937
 3354WAT     H110464   0.672   6.305   4.846
 3354WAT     H210465   0.748   6.382   4.952
 3355WAT      O10466   6.831   4.516   1.919
 3355WAT     H110467   6.830   4.603   1.880
 3355WAT     H210468   6.820   4.532   2.013
 3356WAT      O10469   5.649   4.623   1.666
 3356WAT     H110470   5.686   4.547   1.622
 3356WAT     H210471   5.569   4.590   1.707
 3357WAT      O10472   2.422   6.502   4.756
 3357WAT     H110473   2.488   6.502   4.688
 3357WAT     H210474   2.374   6.584   4.743
 3358WAT      O10475   0.676   1.146   3.735
 3358WAT     H110476   0.668   1.051   3.729
 3358WAT     H210477   0.603   1.179   3.682
 3359WAT      O10478   5.807   1.224   1.299
 3359WAT     H110479   5.831   1.289   1.233
 3359WAT     H210480   5.874   1.156   1.291
 3360WAT      O10481   6.565   1.454   1.121
 3360WAT     H110482   6.631   1.488   1.060
 3360WAT     H210483   6.487   1.441   1.067
 3361WAT      O10484   5.103   4.559   3.606
 3361WAT     H110485   5.048   4.637   3.613
 3361WAT     H210486   5.104   4.539   3.513
 3362WAT      O10487   0.220   0.079   1.379
 3362WAT     H110488   0.198  -0.010   1.353
 3362WAT     H210489   0.259   0.118   1.300
 3363WAT      O10490   6.316   0.222   4.439
 3363WAT     H110491   6.304   0.219   4.344
 3363WAT     H210492   6.325   0.315   4.460
 3364WAT      O10493   0.151   6.993   3.425
 3364WAT     H110494   0.221   7.046   3.462
 3364WAT     H210495   0.086   7.057   3.395
 3365WAT      O10496   7.524   1.944   2.093
 3365WAT     H110497   7.504   2.037   2.104
 3365WAT     H210498   7.442   1.900   2.117
 3366WAT      O10499   2.304   4.503   0.613
 3366WAT     H110500   2.363   4.552   0.671
 3366WAT     H210501   2.358   4.434   0.575
 3367WAT      O10502   0.407   4.101   6.069
 3367WAT     H110503   0.416   4.183   6.117
 3367WAT     H210504   0.313   4.091   6.056
 3368WAT      O10505   4.383   6.328   0.923
 3368WAT     H110506   4.468   6.300   0.957
 3368WAT     H210507   4.401   6.362   0.836
 3369WAT      O10508   5.702   0.720   5.469
 3369WAT     H110509   5.749   0.644   5.434
 3369WAT     H210510   5.657   0.686   5.546
 3370WAT      O10511   0.286   1.248   5.202
 3370WAT     H110512   0.371   1.266   5.162
 3370WAT     H210513   0.223   1.269   5.133
 3371WAT      O10514   5.420   5.085   0.218
 3371WAT     H110515   5.384   5.069   0.131
 3371WAT     H210516   5.357   5.045   0.277
 3372WAT      O10517   6.709   3.677   2.310
 3372WAT     H110518   6.687   3.747   2.247
 3372WAT     H210519   6.651   3.605   2.287
 3373WAT      O10520   4.314   6.974   5.780
 3373WAT     H110521   4.352   7.062   5.787
 3373WAT     H210522   4.384   6.920   5.744
 3374WAT      O10523   0.127   2.684   4.802
 3374WAT     H110524   0.097   2.707   4.714
 3374WAT     H210525   0.178   2.604   4.790
 3375WAT      O10526   5.442   3.900   0.690
 3375WAT     H110527   5.449   3.995   0.677
 3375WAT     H210528   5.533   3.870   0.696
 3376WAT      O10529   6.386   3.048   4.689
 3376WAT     H110530   6.415   2.985   4.623
 3376WAT     H210531   6.395   3.133   4.646
 3377WAT      O10532   1.518   1.962   5.621
 3377WAT     H110533   1.551   1.873   5.634
 3377WAT     H210534   1.493   1.965   5.529
 3378WAT      O10535   5.255   6.450   5.036
 3378WAT     H110536   5.240   6.497   5.119
 3378WAT     H210537   5.187   6.383   5.033
 3379WAT      O10538   2.732   1.027   2.678
 3379WAT     H110539   2.759   0.999   2.766
 3379WAT     H210540   2.783   1.106   2.661
 3380WAT      O10541   1.956   3.619   1.877
 3380WAT     H110542   1.991   3.708   1.880
 3380WAT     H210543   1.889   3.622   1.809
 3381WAT      O10544   0.640   5.768   1.977
 3381WAT     H110545   0.564   5.717   1.949
 3381WAT     H210546   0.708   5.702   1.994
 3382WAT      O10547   0.859   5.911   2.912
 3382WAT     H110548   0.811   5.904   2.829
 3382WAT     H210549   0.869   6.005   2.926
 3383WAT      O10550   0.734   4.653   4.316
 3383WAT     H110551   0.652   4.612   4.289
 3383WAT     H210552   0.788   4.654   4.236
 3384WAT      O10553   7.616   1.044   4.696
 3384WAT     H110554   7.558   1.092   4.755
 3384WAT     H210555   7.579   1.056   4.609
 3385WAT      O10556   1.166   2.254   5.790
 3385WAT     H110557   1.241   2.269   5.731
 3385WAT     H210558   1.129   2.170   5.761
 3386WAT      O10559   7.322   0.864   4.769
 3386WAT     H110560   7.320   0.824   4.682
 3386WAT     H210561   7.312   0.958   4.753
 3387WAT      O10562   0.522   6.365   3.508
 3387WAT     H110563   0.471   6.298   3.462
 3387WAT     H210564   0.504   6.446   3.460
 3388WAT      O10565   0.535   2.125   4.570
 3388WAT     H110566   0.593   2.199   4.554
 3388WAT     H210567   0.589   2.048   4.556
 3389WAT      O10568   6.058   5.919   2.396
 3389WAT     H110569   6.048   5.903   2.303
 3389WAT     H210570   6.034   5.837   2.438
 3390WAT      O10571   6.768   2.919   6.221
 3390WAT     H110572   6.730   2.907   6.133
 3390WAT     H210573   6.789   2.830   6.249
 3391WAT      O10574   5.912   1.850   1.781
 3391WAT     H110575   5.860   1.809   1.712
 3391WAT     H210576   5.954   1.777   1.826
 3392WAT      O10577   1.040   5.586   2.075
 3392WAT     H110578   1.043   5.682   2.083
 3392WAT     H210579   1.120   5.563   2.027
 3393WAT      O10580   2.804   2.726   4.947
 3393WAT     H110581   2.874   2.782   4.981
 3393WAT     H210582   2.836   2.636   4.960
 3394WAT      O10583   5.952   1.649   0.076
 3394WAT     H110584   5.958   1.660  -0.019
 3394WAT     H210585   6.041   1.623   0.102
 3395WAT      O10586   4.283   5.118   0.533
 3395WAT     H110587   4.359   5.127   0.475
 3395WAT     H210588   4.219   5.180   0.497
 3396WAT      O10589   1.766   3.573   0.613
 3396WAT     H110590   1.816   3.599   0.691
 3396WAT     H210591   1.820   3.602   0.539
 3397WAT      O10592   4.926   1.146   0.979
 3397WAT     H110593   4.893   1.215   0.922
 3397WAT     H210594   4.855   1.131   1.042
 3398WAT      O10595   4.534   4.695   5.715
 3398WAT     H110596   4.456   4.739   5.683
 3398WAT     H210597   4.523   4.604   5.687
 3399WAT      O10598   0.605   6.289   2.391
 3399WAT     H110599   0.530   6.322   2.440
 3399WAT     H210600   0.586   6.197   2.376
 3400WAT      O10601   5.914   1.094   0.425
 3400WAT     H110602   5.873   1.132   0.347
 3400WAT     H210603   5.843   1.046   0.468
 3401WAT      O10604   4.291   2.686   0.147
 3401WAT     H110605   4.382   2.708   0.169
 3401WAT     H210606   4.297   2.645   0.061
 3402WAT      O10607   0.328   3.961   4.228
 3402WAT     H110608   0.273   3.890   4.194
 3402WAT     H210609   0.293   3.977   4.316
 3403WAT      O10610   5.803   3.509   2.924
 3403WAT     H110611   5.762   3.593   2.904
 3403WAT     H210612   5.897   3.526   2.921
 3404WAT      O10613   2.122   6.262   1.480
 3404WAT     H110614   2.061   6.312   1.534
 3404WAT     H210615   2.116   6.303   1.394
 3405WAT      O10616   0.930   2.323   6.002
 3405WAT     H110617   0.945   2.254   5.938
 3405WAT     H210618   0.834   2.332   6.004
 3406WAT      O10619   3.337   0.070   4.783
 3406WAT     H110620   3.414   0.034   4.738
 3406WAT     H210621   3.263   0.024   4.744
 3407WAT      O10622   6.016   4.587   2.593
 3407WAT     H110623   5.921   4.594   2.601
 3407WAT     H210624   6.047   4.678   2.597
 3408WAT      O10625   6.969   4.332   0.113
 3408WAT     H110626   6.924   4.373   0.187
 3408WAT     H210627   6.912   4.348   0.038
 3409WAT      O10628   4.143   5.725   0.778
 3409WAT     H110629   4.120   5.639   0.746
 3409WAT     H210630   4.204   5.760   0.713
 3410WAT      O10631   5.667   3.911   6.175
 3410WAT     H110632   5.620   3.846   6.227
 3410WAT     H210633   5.751   3.870   6.154
 3411WAT      O10634   3.993   6.161   3.482
 3411WAT     H110635   3.970   6.096   3.416
 3411WAT     H210636   4.083   6.186   3.460
 3412WAT      O10637   1.008   4.211   5.502
 3412WAT     H110638   1.098   4.190   5.528
 3412WAT     H210639   0.977   4.132   5.458
 3413WAT      O10640   4.267   3.273   6.188
 3413WAT     H110641   4.185   3.224   6.186
 3413WAT     H210642   4.280   3.302   6.098
 3414WAT      O10643   1.356   4.628   1.728
 3414WAT     H110644   1.330   4.682   1.654
 3414WAT     H210645   1.350   4.686   1.804
 3415WAT      O10646   0.431   3.953   0.332
 3415WAT     H110647   0.485   4.025   0.365
 3415WAT     H210648   0.375   3.929   0.406
 3416WAT      O10649   3.127   1.975   0.260
 3416WAT     H110650   3.217   1.992   0.233
 3416WAT     H210651   3.095   2.059   0.291
 3417WAT      O10652   7.458   3.710   2.454
 3417WAT     H110653   7.551   3.707   2.476
 3417WAT     H210654   7.451   3.779   2.389
 3418WAT      O10655   6.118   6.524   3.084
 3418WAT     H110656   6.196   6.474   3.061
 3418WAT     H210657   6.079   6.548   3.000
 3419WAT      O10658   3.170   6.512   4.565
 3419WAT     H110659   3.143   6.588   4.514
 3419WAT     H210660   3.171   6.440   4.502
 3420WAT      O10661   0.932   3.631   1.950
 3420WAT     H110662   0.965   3.542   1.936
 3420WAT     H210663   0.968   3.657   2.035
 3421WAT      O10664   6.298   6.957   1.243
 3421WAT     H110665   6.381   6.927   1.205
 3421WAT     H210666   6.318   6.973   1.335
 3422WAT      O10667   0.362   6.634   2.649
 3422WAT     H110668   0.441   6.654   2.599
 3422WAT     H210669   0.294   6.686   2.606
 3423WAT      O10670   0.406   6.595   3.416
 3423WAT     H110671   0.461   6.652   3.362
 3423WAT     H210672   0.331   6.575   3.360
 3424WAT      O10673   0.398   5.819   0.027
 3424WAT     H110674   0.470   5.878   0.005
 3424WAT     H210675   0.390   5.825   0.122
 3425WAT      O10676   0.073   0.737   0.452
 3425WAT     H110677   0.006   0.744   0.384
 3425WAT     H210678   0.103   0.646   0.447
 3426WAT      O10679   2.815   3.413   0.127
 3426WAT     H110680   2.819   3.500   0.168
 3426WAT     H210681   2.820   3.430   0.033
 3427WAT      O10682   6.020   7.092   0.268
 3427WAT     H110683   6.039   7.163   0.207
 3427WAT     H210684   5.940   7.051   0.232
 3428WAT      O10685   1.241   6.348   4.326
 3428WAT     H110686   1.296   6.376   4.398
 3428WAT     H210687   1.257   6.254   4.318
 3429WAT      O10688   6.851   7.143   3.487
 3429WAT     H110689   6.844   7.098   3.571
 3429WAT     H210690   6.900   7.082   3.432
 3430WAT      O10691   3.815   1.313   3.397
 3430WAT     H110692   3.892   1.369   3.388
 3430WAT     H210693   3.770   1.319   3.313
 3431WAT      O10694   5.469   2.016   5.207
 3431WAT     H110695   5.442   1.993   5.118
 3431WAT     H210696   5.473   1.933   5.254
 3432WAT      O10697   6.098   4.361   2.700
 3432WAT     H110698   6.031   4.295   2.685
 3432WAT     H210699   6.066   4.438   2.653
 3433WAT      O10700   2.507   6.105   1.370
 3433WAT     H110701   2.588   6.078   1.414
 3433WAT     H210702   2.438   6.090   1.435
 3434WAT      O10703   1.590   3.902   4.345
 3434WAT     H110704   1.522   3.968   4.333
 3434WAT     H210705   1.608   3.869   4.256
 3435WAT      O10706   5.267   5.334   1.821
 3435WAT     H110707   5.331   5.340   1.891
 3435WAT     H210708   5.225   5.249   1.833
 3436WAT      O10709   5.169   1.140   4.082
 3436WAT     H110710   5.235   1.200   4.046
 3436WAT     H210711   5.120   1.110   4.006
 3437WAT      O10712   4.098   3.517   5.045
 3437WAT     H110713   4.148   3.519   4.964
 3437WAT     H210714   4.013   3.553   5.021
 3438WAT      O10715   7.553   0.767   0.223
 3438WAT     H110716   7.476   0.739   0.173
 3438WAT     H210717   7.622   0.772   0.157
 3439WAT      O10718   2.130   4.601   5.192
 3439WAT     H110719   2.093   4.649   5.118
 3439WAT     H210720   2.065   4.609   5.262
 3440WAT      O10721   4.287   3.671   5.230
 3440WAT     H110722   4.202   3.661   5.185
 3440WAT     H210723   4.342   3.717   5.166
 3441WAT      O10724   7.455   2.666   0.835
 3441WAT     H110725   7.397   2.726   0.789
 3441WAT     H210726   7.405   2.640   0.913
 3442WAT      O10727   7.496   0.226   5.599
 3442WAT     H110728   7.434   0.159   5.570
 3442WAT     H210729   7.449   0.273   5.668
 3443WAT      O10730   4.611   7.085   5.293
 3443WAT     H110731   4.669   7.015   5.321
 3443WAT     H210732   4.627   7.093   5.199
 3444WAT      O10733   2.194   0.938   0.142
 3444WAT     H110734   2.282   0.912   0.169
 3444WAT     H210735   2.205   0.971   0.053
 3445WAT      O10736   4.593   5.286   3.934
 3445WAT     H110737   4.676   5.310   3.893
 3445WAT     H210738   4.537   5.261   3.860
 3446WAT      O10739   5.632   4.200   4.840
 3446WAT     H110740   5.620   4.201   4.745
 3446WAT     H210741   5.613   4.110   4.866
 3447WAT      O10742   2.924   0.430   6.129
 3447WAT     H110743   2.947   0.490   6.200
 3447WAT     H210744   2.913   0.346   6.172
 3448WAT      O10745   7.404   5.409   1.048
 3448WAT     H110746   7.362   5.335   1.090
 3448WAT     H210747   7.374   5.405   0.957
 3449WAT      O10748   3.726   0.888   1.558
 3449WAT     H110749   3.704   0.907   1.467
 3449WAT     H210750   3.742   0.794   1.559
 3450WAT      O10751   5.684   1.965   6.011
 3450WAT     H110752   5.668   2.007   6.095
 3450WAT     H210753   5.599   1.929   5.986
 3451WAT      O10754   2.517   0.991   3.172
 3451WAT     H110755   2.609   1.013   3.189
 3451WAT     H210756   2.519   0.940   3.091
 3452WAT      O10757   0.907   3.432   2.965
 3452WAT     H110758   0.974   3.381   3.009
 3452WAT     H210759   0.826   3.381   2.978
 3453WAT      O10760   3.032   5.544   0.466
 3453WAT     H110761   3.091   5.571   0.537
 3453WAT     H210762   3.072   5.464   0.432
 3454WAT      O10763   0.484   0.563   3.768
 3454WAT     H110764   0.494   0.545   3.674
 3454WAT     H210765   0.390   0.552   3.784
 3455WAT      O10766   2.735   0.080   1.901
 3455WAT     H110767   2.708   0.122   1.983
 3455WAT     H210768   2.830   0.083   1.903
 3456WAT      O10769   7.139   2.257   4.372
 3456WAT     H110770   7.088   2.320   4.320
 3456WAT     H210771   7.214   2.236   4.317
 3457WAT      O10772   3.352   3.404   0.120
 3457WAT     H110773   3.417   3.374   0.183
 3457WAT     H210774   3.352   3.338   0.051
 3458WAT      O10775   5.066   3.660   2.766
 3458WAT     H110776   4.983   3.647   2.721
 3458WAT     H210777   5.132   3.649   2.697
 3459WAT      O10778   0.006   1.157   1.099
 3459WAT     H110779   0.059   1.116   1.031
 3459WAT     H210780  -0.084   1.137   1.075
 3460WAT      O10781   4.843   4.842   2.087
 3460WAT     H110782   4.752   4.823   2.108
 3460WAT     H210783   4.861   4.788   2.010
 3461WAT      O10784   6.236   0.944   4.089
 3461WAT     H110785   6.291   0.866   4.080
 3461WAT     H210786   6.205   0.962   4.000
 3462WAT      O10787   7.074   1.397   6.087
 3462WAT     H110788   7.113   1.310   6.080
 3462WAT     H210789   7.061   1.426   5.997
 3463WAT      O10790   3.309   6.814   3.216
 3463WAT     H110791   3.297   6.859   3.132
 3463WAT     H210792   3.256   6.734   3.207
 3464WAT      O10793   4.377   3.534   3.435
 3464WAT     H110794   4.440   3.551   3.505
 3464WAT     H210795   4.299   3.583   3.461
 3465WAT      O10796   2.790   2.551   3.479
 3465WAT     H110797   2.837   2.542   3.396
 3465WAT     H210798   2.818   2.475   3.531
 3466WAT      O10799   6.978   7.060   1.032
 3466WAT     H110800   6.970   7.155   1.045
 3466WAT     H210801   7.072   7.044   1.031
 3467WAT      O10802   3.811   4.894   2.950
 3467WAT     H110803   3.812   4.799   2.949
 3467WAT     H210804   3.748   4.918   2.882
 3468WAT      O10805   1.289   3.219   4.313
 3468WAT     H110806   1.215   3.163   4.287
 3468WAT     H210807   1.333   3.240   4.230
 3469WAT      O10808   5.054   4.594   0.080
 3469WAT     H110809   5.100   4.512   0.062
 3469WAT     H210810   5.093   4.627   0.160
 3470WAT      O10811   1.397   3.848   3.905
 3470WAT     H110812   1.370   3.839   3.814
 3470WAT     H210813   1.348   3.923   3.938
 3471WAT      O10814   5.624   4.252   0.813
 3471WAT     H110815   5.574   4.220   0.738
 3471WAT     H210816   5.654   4.339   0.786
 3472WAT      O10817   3.152   6.455   5.950
 3472WAT     H110818   3.226   6.517   5.944
 3472WAT     H210819   3.161   6.416   6.037
 3473WAT      O10820   7.090   5.992   2.962
 3473WAT     H110821   7.184   6.000   2.974
 3473WAT     H210822   7.080   5.929   2.890
 3474WAT      O10823   6.461   4.304   1.302
 3474WAT     H110824   6.519   4.378   1.283
 3474WAT     H210825   6.399   4.302   1.229
 3475WAT      O10826   3.651   5.706   3.239
 3475WAT     H110827   3.731   5.654   3.243
 3475WAT     H210828   3.599   5.676   3.314
 3476WAT      O10829   3.663   2.411   0.665
 3476WAT     H110830   3.606   2.455   0.602
 3476WAT     H210831   3.735   2.376   0.612
 3477WAT      O10832   6.707   5.771   1.668
 3477WAT     H110833   6.641   5.814   1.723
 3477WAT     H210834   6.665   5.763   1.582
 3478WAT      O10835   6.504   6.242   1.460
 3478WAT     H110836   6.524   6.264   1.369
 3478WAT     H210837   6.420   6.197   1.456
 3479WAT      O10838   4.441   1.441   2.012
 3479WAT     H110839   4.511   1.500   2.040
 3479WAT     H210840   4.394   1.489   1.944
 3480WAT      O10841   5.648   0.717   2.638
 3480WAT     H110842   5.676   0.808   2.651
 3480WAT     H210843   5.644   0.706   2.543
 3481WAT      O10844   3.358   5.367   0.170
 3481WAT     H110845   3.397   5.454   0.179
 3481WAT     H210846   3.394   5.333   0.088
 3482WAT      O10847   7.470   4.386   5.977
 3482WAT     H110848   7.555   4.352   5.950
 3482WAT     H210849   7.429   4.415   5.895
 3483WAT      O10850   1.433   4.192   0.711
 3483WAT     H110851   1.346   4.196   0.748
 3483WAT     H210852   1.420   4.208   0.617
 3484WAT      O10853   3.617   4.221   0.037
 3484WAT     H110854   3.623   4.191   0.127
 3484WAT     H210855   3.658   4.308   0.038
 3485WAT      O10856   3.888   4.580   2.770
 3485WAT     H110857   3.900   4.490   2.740
 3485WAT     H210858   3.836   4.572   2.850
 3486WAT      O10859   6.562   5.821   2.916
 3486WAT     H110860   6.469   5.840   2.924
 3486WAT     H210861   6.605   5.907   2.924
 3487WAT      O10862   4.108   3.585   2.499
 3487WAT     H110863   4.076   3.536   2.423
 3487WAT     H210864   4.098   3.677   2.475
 3488WAT      O10865   1.592   2.258   0.575
 3488WAT     H110866   1.554   2.341   0.546
 3488WAT     H210867   1.613   2.271   0.667
 3489WAT      O10868   0.184   5.489   3.010
 3489WAT     H110869   0.195   5.427   2.938
 3489WAT     H210870   0.187   5.575   2.968
 3490WAT      O10871   1.073   6.405   0.387
 3490WAT     H110872   1.073   6.427   0.294
 3490WAT     H210873   1.135   6.467   0.426
 3491WAT      O10874   2.212   3.388   3.828
 3491WAT     H110875   2.146   3.335   3.873
 3491WAT     H210876   2.274   3.324   3.793
 3492WAT      O10877   7.218   3.767   5.724
 3492WAT     H110878   7.308   3.791   5.744
 3492WAT     H210879   7.176   3.849   5.698
 3493WAT      O10880   4.433   3.758   4.478
 3493WAT     H110881   4.429   3.703   4.557
 3493WAT     H210882   4.519   3.799   4.482
 3494WAT      O10883   1.726   0.143   2.411
 3494WAT     H110884   1.707   0.052   2.435
 3494WAT     H210885   1.816   0.141   2.379
 3495WAT      O10886   3.096   2.264   1.667
 3495WAT     H110887   3.030   2.325   1.633
 3495WAT     H210888   3.138   2.228   1.590
 3496WAT      O10889   3.152   1.633   2.575
 3496WAT     H110890   3.070   1.672   2.543
 3496WAT     H210891   3.215   1.650   2.506
 3497WAT      O10892   3.657   3.821   0.815
 3497WAT     H110893   3.695   3.811   0.728
 3497WAT     H210894   3.582   3.879   0.801
 3498WAT      O10895   4.160   6.370   4.621
 3498WAT     H110896   4.074   6.346   4.588
 3498WAT     H210897   4.149   6.376   4.716
 3499WAT      O10898   7.207   1.274   3.129
 3499WAT     H110899   7.161   1.295   3.047
 3499WAT     H210900   7.227   1.360   3.167
 3500WAT      O10901   3.427   1.498   5.589
 3500WAT     H110902   3.491   1.569   5.579
 3500WAT     H210903   3.438   1.468   5.679
 3501WAT      O10904   6.164   4.741   5.551
 3501WAT     H110905   6.151   4.663   5.496
 3501WAT     H210906   6.177   4.812   5.489
 3502WAT      O10907   1.059   4.173   0.318
 3502WAT     H110908   1.010   4.190   0.238
 3502WAT     H210909   1.077   4.261   0.353
 3503WAT      O10910   3.788   3.414   2.444
 3503WAT     H110911   3.858   3.389   2.384
 3503WAT     H210912   3.822   3.393   2.531
 3504WAT      O10913   4.244   2.967   3.413
 3504WAT     H110914   4.157   3.005   3.418
 3504WAT     H210915   4.303   3.042   3.416
 3505WAT      O10916   2.734   6.201   1.117
 3505WAT     H110917   2.811   6.144   1.123
 3505WAT     H210918   2.726   6.222   1.024
 3506WAT      O10919   4.729   0.616   0.106
 3506WAT     H110920   4.732   0.537   0.160
 3506WAT     H210921   4.812   0.659   0.123
 3507WAT      O10922   5.051   2.437   2.601
 3507WAT     H110923   5.084   2.499   2.666
 3507WAT     H210924   5.122   2.373   2.591
 3508WAT      O10925   4.871   4.928   4.750
 3508WAT     H110926   4.941   4.863   4.762
 3508WAT     H210927   4.916   5.006   4.719
 3509WAT      O10928   2.534   7.056   5.148
 3509WAT     H110929   2.536   7.132   5.205
 3509WAT     H210930   2.591   7.080   5.075
 3510WAT      O10931   5.195   3.743   4.341
 3510WAT     H110932   5.203   3.722   4.248
 3510WAT     H210933   5.205   3.838   4.345
 3511WAT      O10934   6.880   0.292   5.455
 3511WAT     H110935   6.786   0.304   5.468
 3511WAT     H210936   6.889   0.270   5.362
 3512WAT      O10937   7.075   3.882   1.123
 3512WAT     H110938   6.983   3.904   1.132
 3512WAT     H210939   7.101   3.919   1.039
 3513WAT      O10940   1.452   5.371   1.763
 3513WAT     H110941   1.529   5.414   1.800
 3513WAT     H210942   1.449   5.285   1.805
 3514WAT      O10943   5.697   6.630   1.695
 3514WAT     H110944   5.651   6.712   1.680
 3514WAT     H210945   5.656   6.593   1.773
 3515WAT      O10946   2.956   6.162   0.634
 3515WAT     H110947   3.042   6.170   0.675
 3515WAT     H210948   2.962   6.216   0.555
 3516WAT      O10949   6.003   3.302   2.552
 3516WAT     H110950   6.025   3.387   2.590
 3516WAT     H210951   5.935   3.322   2.487
 3517WAT      O10952   5.643   2.303   4.166
 3517WAT     H110953   5.605   2.270   4.085
 3517WAT     H210954   5.671   2.392   4.145
 3518WAT      O10955   3.205   1.622   0.319
 3518WAT     H110956   3.253   1.666   0.390
 3518WAT     H210957   3.118   1.662   0.320
 3519WAT      O10958   6.036   7.026   6.118
 3519WAT     H110959   5.973   7.097   6.109
 3519WAT     H210960   6.005   6.958   6.058
 3520WAT      O10961   1.463   4.316   6.117
 3520WAT     H110962   1.490   4.230   6.087
 3520WAT     H210963   1.409   4.351   6.045
 3521WAT      O10964   0.192   2.511   0.943
 3521WAT     H110965   0.138   2.485   1.018
 3521WAT     H210966   0.235   2.429   0.916
 3522WAT      O10967   3.945   6.587   0.827
 3522WAT     H110968   4.036   6.616   0.823
 3522WAT     H210969   3.895   6.659   0.788
 3523WAT      O10970   1.844   1.564   2.618
 3523WAT     H110971   1.905   1.606   2.558
 3523WAT     H210972   1.830   1.477   2.581
 3524WAT      O10973   6.016   2.616   1.392
 3524WAT     H110974   5.995   2.578   1.307
 3524WAT     H210975   5.936   2.661   1.420
 3525WAT      O10976   5.341   1.273   3.860
 3525WAT     H110977   5.344   1.361   3.897
 3525WAT     H210978   5.287   1.281   3.782
 3526WAT      O10979   6.826   7.017   1.475
 3526WAT     H110980   6.752   7.054   1.522
 3526WAT     H210981   6.850   7.084   1.411
 3527WAT      O10982   6.601   6.507   3.538
 3527WAT     H110983   6.664   6.577   3.522
 3527WAT     H210984   6.521   6.553   3.565
 3528WAT      O10985   7.138   2.796   2.500
 3528WAT     H110986   7.048   2.780   2.530
 3528WAT     H210987   7.167   2.872   2.550
 3529WAT      O10988   4.889   6.982   5.530
 3529WAT     H110989   4.841   7.010   5.608
 3529WAT     H210990   4.923   7.063   5.491
 3530WAT      O10991   2.315   6.015   2.463
 3530WAT     H110992   2.291   6.002   2.554
 3530WAT     H210993   2.395   5.964   2.451
 3531WAT      O10994   6.649   6.809   1.417
 3531WAT     H110995   6.720   6.871   1.433
 3531WAT     H210996   6.643   6.758   1.497
 3532WAT      O10997   4.295   1.936   3.465
 3532WAT     H110998   4.214   1.981   3.439
 3532WAT     H210999   4.363   1.975   3.410
 3533WAT      O11000   4.554   3.750   0.530
 3533WAT     H111001   4.514   3.828   0.491
 3533WAT     H211002   4.626   3.728   0.471
 3534WAT      O11003   6.391   4.856   2.756
 3534WAT     H111004   6.414   4.769   2.724
 3534WAT     H211005   6.299   4.866   2.734
 3535WAT      O11006   6.165   0.379   5.387
 3535WAT     H111007   6.140   0.446   5.451
 3535WAT     H211008   6.238   0.418   5.339
 3536WAT      O11009   7.362   2.078   5.780
 3536WAT     H111010   7.294   2.022   5.743
 3536WAT     H211011   7.362   2.057   5.873
 3537WAT      O11012   3.463   6.963   1.670
 3537WAT     H111013   3.453   6.881   1.622
 3537WAT     H211014   3.379   7.009   1.656
 3538WAT      O11015   7.440   2.790   5.659
 3538WAT     H111016   7.487   2.823   5.582
 3538WAT     H211017   7.497   2.721   5.694
 3539WAT      O11018   6.838   5.781   4.395
 3539WAT     H111019   6.789   5.822   4.324
 3539WAT     H211020   6.780   5.714   4.429
 3540WAT      O11021   3.048   4.494   5.622
 3540WAT     H111022   3.041   4.547   5.543
 3540WAT     H211023   3.136   4.510   5.656
 3541WAT      O11024   1.299   1.086   3.935
 3541WAT     H111025   1.246   1.079   4.014
 3541WAT     H211026   1.267   1.165   3.892
 3542WAT      O11027   7.473   5.813   2.272
 3542WAT     H111028   7.555   5.768   2.252
 3542WAT     H211029   7.498   5.903   2.289
 3543WAT      O11030   6.436   4.527   0.905
 3543WAT     H111031   6.441   4.578   0.824
 3543WAT     H211032   6.483   4.446   0.884
 3544WAT      O11033   3.678   1.505   2.741
 3544WAT     H111034   3.647   1.508   2.651
 3544WAT     H211035   3.771   1.481   2.734
 3545WAT      O11036   1.278   3.161   0.803
 3545WAT     H111037   1.350   3.176   0.741
 3545WAT     H211038   1.287   3.231   0.867
 3546WAT      O11039   5.519   3.295   1.943
 3546WAT     H111040   5.517   3.390   1.929
 3546WAT     H211041   5.610   3.277   1.968
 3547WAT      O11042   6.749   3.271   3.408
 3547WAT     H111043   6.748   3.311   3.321
 3547WAT     H211044   6.842   3.265   3.430
 3548WAT      O11045   0.018   3.714   2.964
 3548WAT     H111046  -0.006   3.804   2.987
 3548WAT     H211047   0.112   3.711   2.979
 3549WAT      O11048   6.404   3.326   0.742
 3549WAT     H111049   6.472   3.384   0.707
 3549WAT     H211050   6.322   3.361   0.708
 3550WAT      O11051   1.558   2.218   4.079
 3550WAT     H111052   1.635   2.171   4.048
 3550WAT     H211053   1.489   2.151   4.082
 3551WAT      O11054   4.275   6.367   4.077
 3551WAT     H111055   4.318   6.285   4.057
 3551WAT     H211056   4.303   6.427   4.008
 3552WAT      O11057   2.664   3.646   2.420
 3552WAT     H111058   2.724   3.709   2.381
 3552WAT     H211059   2.654   3.578   2.354
 3553WAT      O11060   3.289   4.274   4.667
 3553WAT     H111061   3.227   4.222   4.616
 3553WAT     H211062   3.264   4.365   4.650
 3554WAT      O11063   1.921   3.799   4.418
 3554WAT     H111064   1.947   3.766   4.332
 3554WAT     H211065   1.825   3.795   4.418
 3555WAT      O11066   3.266   3.564   3.488
 3555WAT     H111067   3.170   3.560   3.489
 3555WAT     H211068   3.287   3.646   3.533
 3556WAT      O11069   4.178   5.797   5.901
 3556WAT     H111070   4.267   5.784   5.869
 3556WAT     H211071   4.125   5.734   5.853
 3557WAT      O11072   0.503   0.226   2.151
 3557WAT     H111073   0.416   0.206   2.184
 3557WAT     H211074   0.490   0.296   2.087
 3558WAT      O11075   4.536   6.500   3.525
 3558WAT     H111076   4.445   6.498   3.553
 3558WAT     H211077   4.534   6.541   3.439
 3559WAT      O11078   5.928   6.581   3.241
 3559WAT     H111079   5.997   6.550   3.183
 3559WAT     H211080   5.929   6.676   3.232
 3560WAT      O11081   5.760   3.159   3.671
 3560WAT     H111082   5.848   3.195   3.678
 3560WAT     H211083   5.711   3.224   3.621
 3561WAT      O11084   1.074   1.703   3.191
 3561WAT     H111085   1.118   1.786   3.172
 3561WAT     H211086   1.014   1.690   3.117
 3562WAT      O11087   3.378   2.235   2.685
 3562WAT     H111088   3.380   2.254   2.591
 3562WAT     H211089   3.312   2.294   2.720
 3563WAT      O11090   2.870   5.959   5.936
 3563WAT     H111091   2.855   6.033   5.878
 3563WAT     H211092   2.961   5.933   5.919
 3564WAT      O11093   2.628   0.505   5.870
 3564WAT     H111094   2.618   0.416   5.835
 3564WAT     H211095   2.657   0.557   5.795
 3565WAT      O11096   1.448   0.943   4.527
 3565WAT     H111097   1.537   0.956   4.494
 3565WAT     H211098   1.393   0.944   4.448
 3566WAT      O11099   1.957   2.667   3.310
 3566WAT     H111100   2.030   2.635   3.258
 3566WAT     H211101   1.884   2.609   3.288
 3567WAT      O11102   3.973   4.436   0.286
 3567WAT     H111103   3.951   4.528   0.274
 3567WAT     H211104   4.003   4.430   0.377
 3568WAT      O11105   2.170   6.500   5.270
 3568WAT     H111106   2.204   6.548   5.194
 3568WAT     H211107   2.237   6.435   5.290
 3569WAT      O11108   1.801   5.254   0.839
 3569WAT     H111109   1.719   5.289   0.873
 3569WAT     H211110   1.844   5.214   0.914
 3570WAT      O11111   6.699   5.033   2.003
 3570WAT     H111112   6.762   5.105   1.994
 3570WAT     H211113   6.681   5.029   2.097
 3571WAT      O11114   1.304   0.881   6.006
 3571WAT     H111115   1.325   0.795   5.971
 3571WAT     H211116   1.229   0.911   5.955
 3572WAT      O11117   2.121   1.966   0.043
 3572WAT     H111118   2.121   1.895  -0.021
 3572WAT     H211119   2.034   2.005   0.034
 3573WAT      O11120   3.036   2.854   1.417
 3573WAT     H111121   2.979   2.930   1.403
 3573WAT     H211122   3.104   2.862   1.351
 3574WAT      O11123   4.195   3.614   3.178
 3574WAT     H111124   4.246   3.546   3.222
 3574WAT     H211125   4.107   3.576   3.171
 3575WAT      O11126   7.156   0.587   3.273
 3575WAT     H111127   7.241   0.585   3.228
 3575WAT     H211128   7.176   0.563   3.363
 3576WAT      O11129   6.554   0.549   0.373
 3576WAT     H111130   6.488   0.579   0.311
 3576WAT     H211131   6.527   0.461   0.397
 3577WAT      O11132   2.497   1.673   2.009
 3577WAT     H111133   2.417   1.625   1.985
 3577WAT     H211134   2.494   1.751   1.955
 3578WAT      O11135   1.153   5.501   1.260
 3578WAT     H111136   1.101   5.572   1.222
 3578WAT     H211137   1.101   5.422   1.244
 3579WAT      O11138   0.512   3.950   1.194
 3579WAT     H111139   0.568   3.968   1.118
 3579WAT     H211140   0.514   4.032   1.244
 3580WAT      O11141   0.395   3.531   2.793
 3580WAT     H111142   0.356   3.566   2.712
 3580WAT     H211143   0.483   3.570   2.795
 3581WAT      O11144   7.618   1.518   5.204
 3581WAT     H111145   7.563   1.552   5.275
 3581WAT     H211146   7.601   1.577   5.130
 3582WAT      O11147   2.355   3.596   2.437
 3582WAT     H111148   2.333   3.560   2.523
 3582WAT     H211149   2.397   3.681   2.457
 3583WAT      O11150   5.354   1.783   0.993
 3583WAT     H111151   5.394   1.700   1.017
 3583WAT     H211152   5.392   1.805   0.908
 3584WAT      O11153   3.196   2.465   0.418
 3584WAT     H111154   3.108   2.487   0.387
 3584WAT     H211155   3.255   2.514   0.360
 3585WAT      O11156   1.190   3.795   2.502
 3585WAT     H111157   1.144   3.869   2.462
 3585WAT     H211158   1.274   3.791   2.455
 3586WAT      O11159   2.985   5.046   1.342
 3586WAT     H111160   3.000   4.975   1.280
 3586WAT     H211161   2.890   5.057   1.343
 3587WAT      O11162   0.603   6.511   5.920
 3587WAT     H111163   0.529   6.482   5.867
 3587WAT     H211164   0.588   6.605   5.933
 3588WAT      O11165   4.799   1.950   2.564
 3588WAT     H111166   4.759   1.962   2.478
 3588WAT     H211167   4.769   1.863   2.592
 3589WAT      O11168   4.058   5.482   1.155
 3589WAT     H111169   4.016   5.422   1.217
 3589WAT     H211170   3.993   5.494   1.085
 3590WAT      O11171   4.635   1.961   5.240
 3590WAT     H111172   4.548   1.994   5.262
 3590WAT     H211173   4.630   1.941   5.146
 3591WAT      O11174   1.871   5.189   0.419
 3591WAT     H111175   1.826   5.204   0.336
 3591WAT     H211176   1.950   5.244   0.413
 3592WAT      O11177   3.956   4.925   0.074
 3592WAT     H111178   4.039   4.900   0.034
 3592WAT     H211179   3.916   4.841   0.099
 3593WAT      O11180   6.753   0.234   4.024
 3593WAT     H111181   6.793   0.191   3.948
 3593WAT     H211182   6.804   0.203   4.098
 3594WAT      O11183   7.479   2.431   0.483
 3594WAT     H111184   7.468   2.336   0.482
 3594WAT     H211185   7.543   2.448   0.414
 3595WAT      O11186   6.646   0.222   4.596
 3595WAT     H111187   6.618   0.293   4.654
 3595WAT     H211188   6.575   0.159   4.600
 3596WAT      O11189   1.651   1.410   1.336
 3596WAT     H111190   1.731   1.366   1.366
 3596WAT     H211191   1.665   1.502   1.357
 3597WAT      O11192   2.818   6.831   3.506
 3597WAT     H111193   2.846   6.815   3.416
 3597WAT     H211194   2.879   6.897   3.539
 3598WAT      O11195   2.359   0.020   1.183
 3598WAT     H111196   2.378  -0.069   1.153
 3598WAT     H211197   2.280   0.045   1.134
 3599WAT      O11198   2.120   1.146   0.333
 3599WAT     H111199   2.187   1.157   0.401
 3599WAT     H211200   2.158   1.084   0.271
 3600WAT      O11201   5.704   2.136   3.364
 3600WAT     H111202   5.681   2.211   3.419
 3600WAT     H211203   5.775   2.168   3.308
 3601WAT      O11204   4.850   5.656   3.784
 3601WAT     H111205   4.778   5.609   3.743
 3601WAT     H211206   4.907   5.682   3.712
 3602WAT      O11207   3.673   4.032   3.317
 3602WAT     H111208   3.612   3.996   3.253
 3602WAT     H211209   3.730   3.959   3.341
 3603WAT      O11210   3.294   5.578   1.664
 3603WAT     H111211   3.232   5.636   1.621
 3603WAT     H211212   3.365   5.636   1.693
 3604WAT      O11213   5.375   0.804   2.351
 3604WAT     H111214   5.370   0.839   2.440
 3604WAT     H211215   5.305   0.738   2.347
 3605WAT      O11216   3.909   4.858   2.112
 3605WAT     H111217   3.842   4.870   2.045
 3605WAT     H211218   3.943   4.946   2.128
 3606WAT      O11219   6.990   5.212   0.478
 3606WAT     H111220   7.059   5.270   0.511
 3606WAT     H211221   7.030   5.169   0.402
 3607WAT      O11222   4.206   2.546   0.638
 3607WAT     H111223   4.172   2.471   0.589
 3607WAT     H211224   4.197   2.620   0.579
 3608WAT      O11225   2.288   1.562   2.536
 3608WAT     H111226   2.361   1.527   2.586
 3608WAT     H211227   2.293   1.518   2.451
 3609WAT      O11228   7.278   3.633   1.807
 3609WAT     H111229   7.186   3.655   1.821
 3609WAT     H211230   7.295   3.657   1.716
 3610WAT      O11231   5.548   5.191   1.647
 3610WAT     H111232   5.486   5.219   1.715
 3610WAT     H211233   5.493   5.168   1.572
 3611WAT      O11234   6.858   4.134   0.918
 3611WAT     H111235   6.860   4.193   0.993
 3611WAT     H211236   6.838   4.048   0.956
 3612WAT      O11237   3.291   0.503   1.826
 3612WAT     H111238   3.370   0.463   1.791
 3612WAT     H211239   3.318   0.591   1.852
 3613WAT      O11240   5.390   4.568   5.816
 3613WAT     H111241   5.300   4.561   5.845
 3613WAT     H211242   5.385   4.609   5.730
 3614WAT      O11243   4.406   0.904   5.238
 3614WAT     H111244   4.343   0.974   5.255
 3614WAT     H211245   4.409   0.897   5.142
 3615WAT      O11246   1.854   6.911   5.251
 3615WAT     H111247   1.776   6.905   5.196
 3615WAT     H211248   1.881   6.820   5.265
 3616WAT      O11249   6.449   1.163   0.183
 3616WAT     H111250   6.529   1.148   0.132
 3616WAT     H211251   6.480   1.176   0.273
 3617WAT      O11252   3.898   6.526   2.982
 3617WAT     H111253   3.893   6.455   2.918
 3617WAT     H211254   3.887   6.483   3.066
 3618WAT      O11255   4.208   1.086   5.270
 3618WAT     H111256   4.185   1.118   5.357
 3618WAT     H211257   4.210   1.164   5.215
 3619WAT      O11258   5.199   2.692   1.824
 3619WAT     H111259   5.147   2.614   1.805
 3619WAT     H211260   5.198   2.741   1.742
 3620WAT      O11261   0.039   4.138   1.161
 3620WAT     H111262   0.039   4.116   1.068
 3620WAT     H211263  -0.028   4.206   1.169
 3621WAT      O11264   0.539   1.894   5.756
 3621WAT     H111265   0.465   1.873   5.812
 3621WAT     H211266   0.507   1.963   5.698
 3622WAT      O11267   0.527   4.123   2.247
 3622WAT     H111268   0.521   4.092   2.157
 3622WAT     H211269   0.609   4.086   2.280
 3623WAT      O11270   2.415   3.207   0.042
 3623WAT     H111271   2.380   3.290   0.075
 3623WAT     H211272   2.382   3.202  -0.048
 3624WAT      O11273   3.131   3.386   5.129
 3624WAT     H111274   3.105   3.461   5.077
 3624WAT     H211275   3.192   3.337   5.072
 3625WAT      O11276   6.205   0.110   5.488
 3625WAT     H111277   6.199   0.045   5.419
 3625WAT     H211278   6.164   0.188   5.452
 3626WAT      O11279   3.950   0.629   5.435
 3626WAT     H111280   3.925   0.681   5.512
 3626WAT     H211281   4.042   0.652   5.420
 3627WAT      O11282   5.116   4.641   5.924
 3627WAT     H111283   5.117   4.705   5.853
 3627WAT     H211284   5.034   4.593   5.911
 3628WAT      O11285   4.539   2.627   5.202
 3628WAT     H111286   4.557   2.709   5.248
 3628WAT     H211287   4.465   2.588   5.249
 3629WAT      O11288   6.569   5.161   5.699
 3629WAT     H111289   6.601   5.079   5.662
 3629WAT     H211290   6.502   5.134   5.762
 3630WAT      O11291   6.334   1.791   0.216
 3630WAT     H111292   6.429   1.790   0.209
 3630WAT     H211293   6.303   1.771   0.128
 3631WAT      O11294   1.414   2.907   6.127
 3631WAT     H111295   1.449   2.891   6.214
 3631WAT     H211296   1.330   2.862   6.126
 3632WAT      O11297   6.312   6.053   1.627
 3632WAT     H111298   6.275   5.969   1.654
 3632WAT     H211299   6.396   6.031   1.587
 3633WAT      O11300   7.365   6.421   6.176
 3633WAT     H111301   7.317   6.357   6.228
 3633WAT     H211302   7.309   6.436   6.099
 3634WAT      O11303   3.802   3.056   4.151
 3634WAT     H111304   3.890   3.084   4.123
 3634WAT     H211305   3.768   3.008   4.076
 3635WAT      O11306   4.918   2.245   4.482
 3635WAT     H111307   4.834   2.206   4.457
 3635WAT     H211308   4.978   2.170   4.490
 3636WAT      O11309   3.136   6.950   1.058
 3636WAT     H111310   3.112   6.886   0.991
 3636WAT     H211311   3.189   6.902   1.121
 3637WAT      O11312   1.244   3.171   0.191
 3637WAT     H111313   1.253   3.174   0.096
 3637WAT     H211314   1.253   3.078   0.213
 3638WAT      O11315   1.927   4.609   1.550
 3638WAT     H111316   1.948   4.685   1.496
 3638WAT     H211317   1.957   4.633   1.638
 3639WAT      O11318   7.194   0.733   4.972
 3639WAT     H111319   7.258   0.662   4.982
 3639WAT     H211320   7.229   0.786   4.900
 3640WAT      O11321   1.030   0.122   2.587
 3640WAT     H111322   1.019   0.140   2.494
 3640WAT     H211323   1.066   0.203   2.623
 3641WAT      O11324   6.513   5.522   3.768
 3641WAT     H111325   6.464   5.603   3.757
 3641WAT     H211326   6.557   5.508   3.684
 3642WAT      O11327   4.753   1.309   0.152
 3642WAT     H111328   4.725   1.219   0.167
 3642WAT     H211329   4.804   1.305   0.071
 3643WAT      O11330   4.673   1.803   6.176
 3643WAT     H111331   4.746   1.834   6.121
 3643WAT     H211332   4.711   1.733   6.229
 3644WAT      O11333   0.456   0.721   0.470
 3644WAT     H111334   0.410   0.772   0.537
 3644WAT     H211335   0.528   0.778   0.442
 3645WAT      O11336   6.021   2.133   0.021
 3645WAT     H111337   5.977   2.216   0.000
 3645WAT     H211338   5.958   2.087   0.077
 3646WAT      O11339   6.537   0.184   6.077
 3646WAT     H111340   6.581   0.153   5.997
 3646WAT     H211341   6.597   0.160   6.148
 3647WAT      O11342   2.898   7.166   4.460
 3647WAT     H111343   2.868   7.118   4.383
 3647WAT     H211344   2.954   7.103   4.507
 3648WAT      O11345   1.566   5.384   0.883
 3648WAT     H111346   1.532   5.450   0.945
 3648WAT     H211347   1.539   5.416   0.797
 3649WAT      O11348   6.107   3.001   5.702
 3649WAT     H111349   6.177   3.043   5.752
 3649WAT     H211350   6.124   3.026   5.611
 3650WAT      O11351   4.161   3.699   3.545
 3650WAT     H111352   4.084   3.707   3.601
 3650WAT     H211353   4.135   3.740   3.463
 3651WAT      O11354   6.981   6.586   6.045
 3651WAT     H111355   6.962   6.677   6.022
 3651WAT     H211356   7.020   6.591   6.132
 3652WAT      O11357   5.679   2.039   4.202
 3652WAT     H111358   5.771   2.062   4.184
 3652WAT     H211359   5.631   2.121   4.190
 3653WAT      O11360   6.370   3.672   5.141
 3653WAT     H111361   6.431   3.648   5.071
 3653WAT     H211362   6.363   3.767   5.134
 3654WAT      O11363   2.774   5.451   3.637
 3654WAT     H111364   2.690   5.485   3.666
 3654WAT     H211365   2.770   5.456   3.541
 3655WAT      O11366   0.735   1.412   4.552
 3655WAT     H111367   0.828   1.419   4.572
 3655WAT     H211368   0.716   1.487   4.495
 3656WAT      O11369   0.618   3.657   0.346
 3656WAT     H111370   0.604   3.747   0.375
 3656WAT     H211371   0.673   3.618   0.414
 3657WAT      O11372   6.846   5.112   3.458
 3657WAT     H111373   6.833   5.115   3.364
 3657WAT     H211374   6.767   5.069   3.492
 3658WAT      O11375   6.453   6.560   6.139
 3658WAT     H111376   6.376   6.613   6.117
 3658WAT     H211377   6.416   6.481   6.180
 3659WAT      O11378   4.876   2.631   2.871
 3659WAT     H111379   4.822   2.571   2.820
 3659WAT     H211380   4.937   2.669   2.808
 3660WAT      O11381   0.121   0.059   5.636
 3660WAT     H111382   0.198   0.084   5.586
 3660WAT     H211383   0.047   0.092   5.585
 3661WAT      O11384   5.353   5.553   3.619
 3661WAT     H111385   5.377   5.619   3.684
 3661WAT     H211386   5.421   5.560   3.552
 3662WAT      O11387   4.866   0.947   4.416
 3662WAT     H111388   4.890   0.914   4.329
 3662WAT     H211389   4.921   1.024   4.428
 3663WAT      O11390   3.317   6.890   4.623
 3663WAT     H111391   3.226   6.915   4.640
 3663WAT     H211392   3.318   6.868   4.529
 3664WAT      O11393   7.062   6.076   0.756
 3664WAT     H111394   7.017   6.124   0.826
 3664WAT     H211395   7.081   5.990   0.794
 3665WAT      O11396   1.252   6.681   4.397
 3665WAT     H111397   1.315   6.748   4.424
 3665WAT     H211398   1.293   6.638   4.322
 3666WAT      O11399   0.725   3.133   5.728
 3666WAT     H111400   0.654   3.096   5.676
 3666WAT     H211401   0.714   3.228   5.719
 3667WAT      O11402   7.630   1.334   3.814
 3667WAT     H111403   7.612   1.418   3.771
 3667WAT     H211404   7.664   1.358   3.900
 3668WAT      O11405   6.117   3.975   4.997
 3668WAT     H111406   6.115   3.982   4.902
 3668WAT     H211407   6.047   4.034   5.026
 3669WAT      O11408   5.327   2.448   0.619
 3669WAT     H111409   5.254   2.456   0.558
 3669WAT     H211410   5.287   2.428   0.703
 3670WAT      O11411   5.936   6.555   3.950
 3670WAT     H111412   5.922   6.645   3.922
 3670WAT     H211413   6.031   6.543   3.944
 3671WAT      O11414   6.262   6.750   6.052
 3671WAT     H111415   6.215   6.826   6.088
 3671WAT     H211416   6.209   6.721   5.978
 3672WAT      O11417   4.209   5.372   2.536
 3672WAT     H111418   4.264   5.380   2.614
 3672WAT     H211419   4.250   5.302   2.485
 3673WAT      O11420   6.941   5.793   3.752
 3673WAT     H111421   6.959   5.748   3.670
 3673WAT     H211422   6.876   5.859   3.730
 3674WAT      O11423   1.259   4.667   2.040
 3674WAT     H111424   1.164   4.672   2.045
 3674WAT     H211425   1.286   4.747   1.996
 3675WAT      O11426   2.454   4.890   0.446
 3675WAT     H111427   2.359   4.895   0.442
 3675WAT     H211428   2.471   4.804   0.485
 3676WAT      O11429   5.318   5.417   1.359
 3676WAT     H111430   5.265   5.496   1.370
 3676WAT     H211431   5.308   5.394   1.266
 3677WAT      O11432   1.517   5.821   5.286
 3677WAT     H111433   1.549   5.739   5.248
 3677WAT     H211434   1.595   5.875   5.295
 3678WAT      O11435   2.421   6.641   2.293
 3678WAT     H111436   2.363   6.566   2.276
 3678WAT     H211437   2.483   6.640   2.220
 3679WAT      O11438   0.638   1.241   5.722
 3679WAT     H111439   0.590   1.224   5.803
 3679WAT     H211440   0.572   1.236   5.653
 3680WAT      O11441   6.087   6.405   3.675
 3680WAT     H111442   6.038   6.487   3.675
 3680WAT     H211443   6.037   6.347   3.617
 3681WAT      O11444   5.034   3.593   4.590
 3681WAT     H111445   5.058   3.670   4.641
 3681WAT     H211446   5.105   3.583   4.527
 3682WAT      O11447   2.153   0.610   3.191
 3682WAT     H111448   2.131   0.598   3.099
 3682WAT     H211449   2.225   0.549   3.207
 3683WAT      O11450   2.645   7.125   2.230
 3683WAT     H111451   2.552   7.119   2.211
 3683WAT     H211452   2.668   7.040   2.267
 3684WAT      O11453   2.552   2.387   1.008
 3684WAT     H111454   2.488   2.443   1.052
 3684WAT     H211455   2.625   2.446   0.987
 3685WAT      O11456   5.127   5.203   3.584
 3685WAT     H111457   5.144   5.191   3.491
 3685WAT     H211458   5.112   5.297   3.593
 3686WAT      O11459   0.501   4.575   5.659
 3686WAT     H111460   0.506   4.486   5.625
 3686WAT     H211461   0.532   4.630   5.587
 3687WAT      O11462   6.744   5.135   3.209
 3687WAT     H111463   6.674   5.193   3.179
 3687WAT     H211464   6.712   5.047   3.192
 3688WAT      O11465   1.530   3.413   4.664
 3688WAT     H111466   1.468   3.413   4.591
 3688WAT     H211467   1.604   3.465   4.633
 3689WAT      O11468   3.823   6.581   3.731
 3689WAT     H111469   3.824   6.487   3.717
 3689WAT     H211470   3.912   6.609   3.710
 3690WAT      O11471   1.741   0.913   1.059
 3690WAT     H111472   1.679   0.847   1.028
 3690WAT     H211473   1.686   0.978   1.104
 3691WAT      O11474   5.592   3.511   3.318
 3691WAT     H111475   5.626   3.600   3.319
 3691WAT     H211476   5.515   3.516   3.261
 3692WAT      O11477   3.508   3.760   2.044
 3692WAT     H111478   3.415   3.773   2.027
 3692WAT     H211479   3.550   3.836   2.005
 3693WAT      O11480   4.958   4.054   2.775
 3693WAT     H111481   4.885   4.106   2.742
 3693WAT     H211482   4.990   4.006   2.699
 3694WAT      O11483   3.432   1.860   3.432
 3694WAT     H111484   3.431   1.826   3.342
 3694WAT     H211485   3.396   1.948   3.425
 3695WAT      O11486   2.201   6.929   1.974
 3695WAT     H111487   2.266   6.862   1.957
 3695WAT     H211488   2.251   7.005   2.004
 3696WAT      O11489   4.068   6.847   1.100
 3696WAT     H111490   4.039   6.880   1.015
 3696WAT     H211491   4.040   6.756   1.102
 3697WAT      O11492   3.201   1.250   1.059
 3697WAT     H111493   3.134   1.236   1.125
 3697WAT     H211494   3.154   1.249   0.975
 3698WAT      O11495   5.648   5.837   3.243
 3698WAT     H111496   5.678   5.919   3.281
 3698WAT     H211497   5.593   5.863   3.168
 3699WAT      O11498   6.585   2.093   4.672
 3699WAT     H111499   6.647   2.081   4.600
 3699WAT     H211500   6.592   2.186   4.694
 3700WAT      O11501   0.488   3.133   0.062
 3700WAT     H111502   0.575   3.111   0.095
 3700WAT     H211503   0.442   3.049   0.058
 3701WAT      O11504   3.622   2.959   4.332
 3701WAT     H111505   3.688   2.966   4.263
 3701WAT     H211506   3.569   3.039   4.323
 3702WAT      O11507   6.877   3.921   1.801
 3702WAT     H111508   6.813   3.935   1.730
 3702WAT     H211509   6.945   3.867   1.761
 3703WAT      O11510   5.966   3.566   2.653
 3703WAT     H111511   6.010   3.614   2.723
 3703WAT     H211512   5.888   3.618   2.634
 3704WAT      O11513   2.461   6.589   4.132
 3704WAT     H111514   2.534   6.550   4.180
 3704WAT     H211515   2.439   6.525   4.065
 3705WAT      O11516   6.094   0.733   0.405
 3705WAT     H111517   6.092   0.678   0.483
 3705WAT     H211518   6.010   0.718   0.362
 3706WAT      O11519   5.457   6.231   4.163
 3706WAT     H111520   5.471   6.154   4.217
 3706WAT     H211521   5.512   6.299   4.203
 3707WAT      O11522   6.893   1.512   1.859
 3707WAT     H111523   6.954   1.558   1.801
 3707WAT     H211524   6.915   1.542   1.946
 3708WAT      O11525   4.132   5.418   5.850
 3708WAT     H111526   4.141   5.440   5.943
 3708WAT     H211527   4.038   5.424   5.832
 3709WAT      O11528   2.998   5.182   4.670
 3709WAT     H111529   3.061   5.121   4.707
 3709WAT     H211530   3.021   5.187   4.577
 3710WAT      O11531   6.102   6.215   1.568
 3710WAT     H111532   6.177   6.164   1.597
 3710WAT     H211533   6.055   6.158   1.507
 3711WAT      O11534   3.561   0.271   4.552
 3711WAT     H111535   3.529   0.263   4.462
 3711WAT     H211536   3.484   0.301   4.602
 3712WAT      O11537   1.382   6.842   5.324
 3712WAT     H111538   1.442   6.774   5.294
 3712WAT     H211539   1.343   6.878   5.245
 3713WAT      O11540   0.313   0.566   1.201
 3713WAT     H111541   0.335   0.650   1.242
 3713WAT     H211542   0.388   0.546   1.145
 3714WAT      O11543   3.323   2.287   3.573
 3714WAT     H111544   3.355   2.298   3.663
 3714WAT     H211545   3.397   2.312   3.518
 3715WAT      O11546   3.187   6.648   3.809
 3715WAT     H111547   3.164   6.681   3.722
 3715WAT     H211548   3.186   6.552   3.800
 3716WAT      O11549   2.457   3.017   1.728
 3716WAT     H111550   2.402   3.093   1.712
 3716WAT     H211551   2.397   2.943   1.728
 3717WAT      O11552   3.353   0.429   4.671
 3717WAT     H111553   3.366   0.471   4.587
 3717WAT     H211554   3.274   0.471   4.707
 3718WAT      O11555   5.114   4.714   0.489
 3718WAT     H111556   5.089   4.623   0.477
 3718WAT     H211557   5.035   4.758   0.519
 3719WAT      O11558   7.394   5.708   1.099
 3719WAT     H111559   7.323   5.647   1.079
 3719WAT     H211560   7.400   5.764   1.022
 3720WAT      O11561   3.269   4.268   5.160
 3720WAT     H111562   3.251   4.333   5.092
 3720WAT     H211563   3.241   4.310   5.241
 3721WAT      O11564   0.755   3.714   3.932
 3721WAT     H111565   0.839   3.718   3.886
 3721WAT     H211566   0.740   3.620   3.947
 3722WAT      O11567   3.606   1.403   0.502
 3722WAT     H111568   3.692   1.430   0.532
 3722WAT     H211569   3.575   1.475   0.448
 3723WAT      O11570   4.840   6.437   5.950
 3723WAT     H111571   4.824   6.344   5.933
 3723WAT     H211572   4.771   6.483   5.903
 3724WAT      O11573   4.304   5.993   2.710
 3724WAT     H111574   4.244   6.064   2.686
 3724WAT     H211575   4.314   5.942   2.630
 3725WAT      O11576   3.232   0.141   3.573
 3725WAT     H111577   3.278   0.192   3.640
 3725WAT     H211578   3.150   0.115   3.615
 3726WAT      O11579   6.128   3.451   0.760
 3726WAT     H111580   6.085   3.498   0.689
 3726WAT     H211581   6.092   3.362   0.755
 3727WAT      O11582   7.185   1.088   2.837
 3727WAT     H111583   7.216   1.169   2.877
 3727WAT     H211584   7.211   1.019   2.898
 3728WAT      O11585   2.503   1.426   2.641
 3728WAT     H111586   2.518   1.387   2.555
 3728WAT     H211587   2.468   1.354   2.694
 3729WAT      O11588   7.167   0.128   2.289
 3729WAT     H111589   7.185   0.036   2.305
 3729WAT     H211590   7.101   0.128   2.220
 3730WAT      O11591   2.660   3.691   3.184
 3730WAT     H111592   2.704   3.631   3.244
 3730WAT     H211593   2.717   3.768   3.180
 3731WAT      O11594   2.206   0.016   5.644
 3731WAT     H111595   2.270   0.072   5.688
 3731WAT     H211596   2.177   0.067   5.568
 3732WAT      O11597   5.961   2.006   5.418
 3732WAT     H111598   6.012   2.068   5.366
 3732WAT     H211599   5.916   1.952   5.353
 3733WAT      O11600   4.363   6.528   2.842
 3733WAT     H111601   4.297   6.515   2.910
 3733WAT     H211602   4.427   6.588   2.881
 3734WAT      O11603   6.133   0.043   4.163
 3734WAT     H111604   6.176  -0.022   4.218
 3734WAT     H211605   6.096  -0.008   4.090
 3735WAT      O11606   0.142   0.940   5.710
 3735WAT     H111607   0.124   0.954   5.617
 3735WAT     H211608   0.123   0.847   5.724
 3736WAT      O11609   5.101   6.617   4.880
 3736WAT     H111610   5.141   6.537   4.915
 3736WAT     H211611   5.134   6.624   4.791
 3737WAT      O11612   7.522   6.098   6.033
 3737WAT     H111613   7.545   6.045   5.957
 3737WAT     H211614   7.426   6.093   6.037
 3738WAT      O11615   7.071   6.838   3.622
 3738WAT     H111616   7.040   6.783   3.694
 3738WAT     H211617   7.109   6.775   3.560
 3739WAT      O11618   0.888   5.644   3.628
 3739WAT     H111619   0.961   5.583   3.621
 3739WAT     H211620   0.874   5.674   3.538
 3740WAT      O11621   0.823   7.101   2.584
 3740WAT     H111622   0.862   7.147   2.658
 3740WAT     H211623   0.729   7.116   2.594
 3741WAT      O11624   4.537   0.966   4.705
 3741WAT     H111625   4.607   0.904   4.684
 3741WAT     H211626   4.567   1.049   4.668
 3742WAT      O11627   2.679   5.404   5.177
 3742WAT     H111628   2.712   5.470   5.116
 3742WAT     H211629   2.756   5.352   5.201
 3743WAT      O11630   1.766   4.161   2.771
 3743WAT     H111631   1.710   4.234   2.745
 3743WAT     H211632   1.855   4.191   2.753
 3744WAT      O11633   1.424   1.747   6.045
 3744WAT     H111634   1.463   1.660   6.035
 3744WAT     H211635   1.379   1.762   5.961
 3745WAT      O11636   2.716   3.898   4.037
 3745WAT     H111637   2.652   3.899   3.965
 3745WAT     H211638   2.746   3.989   4.043
 3746WAT      O11639   3.278   5.557   2.138
 3746WAT     H111640   3.185   5.572   2.125
 3746WAT     H211641   3.300   5.485   2.079
 3747WAT      O11642   4.568   4.387   2.609
 3747WAT     H111643   4.474   4.401   2.606
 3747WAT     H211644   4.583   4.308   2.558
 3748WAT      O11645   1.995   2.883   2.356
 3748WAT     H111646   2.049   2.897   2.278
 3748WAT     H211647   1.952   2.967   2.370
 3749WAT      O11648   5.125   4.742   0.812
 3749WAT     H111649   5.032   4.718   0.815
 3749WAT     H211650   5.133   4.798   0.735
 3750WAT      O11651   3.751   4.350   2.689
 3750WAT     H111652   3.729   4.268   2.733
 3750WAT     H211653   3.790   4.322   2.606
 3751WAT      O11654   0.541   0.759   3.934
 3751WAT     H111655   0.575   0.816   3.865
 3751WAT     H211656   0.510   0.681   3.888
 3752WAT      O11657   6.440   2.134   1.645
 3752WAT     H111658   6.399   2.109   1.563
 3752WAT     H211659   6.371   2.127   1.711
 3753WAT      O11660   3.941   2.914   2.706
 3753WAT     H111661   3.921   2.901   2.614
 3753WAT     H211662   4.015   2.975   2.706
 3754WAT      O11663   6.588   5.892   6.045
 3754WAT     H111664   6.525   5.848   5.988
 3754WAT     H211665   6.542   5.971   6.076
 3755WAT      O11666   3.628   5.769   0.058
 3755WAT     H111667   3.672   5.853   0.073
 3755WAT     H211668   3.664   5.737  -0.024
 3756WAT      O11669   3.346   0.476   5.837
 3756WAT     H111670   3.341   0.570   5.857
 3756WAT     H211671   3.258   0.443   5.853
 3757WAT      O11672   6.915   3.391   4.589
 3757WAT     H111673   6.944   3.483   4.591
 3757WAT     H211674   6.996   3.341   4.575
 3758WAT      O11675   0.882   0.614   0.494
 3758WAT     H111676   0.826   0.634   0.419
 3758WAT     H211677   0.827   0.632   0.570
 3759WAT      O11678   2.711   3.804   4.875
 3759WAT     H111679   2.789   3.757   4.845
 3759WAT     H211680   2.651   3.736   4.902
 3760WAT      O11681   1.362   5.902   4.050
 3760WAT     H111682   1.456   5.900   4.032
 3760WAT     H211683   1.331   5.816   4.020
 3761WAT      O11684   0.021   1.436   0.089
 3761WAT     H111685  -0.008   1.363   0.144
 3761WAT     H211686   0.106   1.407   0.055
 3762WAT      O11687   4.604   3.368   3.244
 3762WAT     H111688   4.576   3.455   3.216
 3762WAT     H211689   4.698   3.378   3.261
 3763WAT      O11690   2.121   0.113   0.393
 3763WAT     H111691   2.097   0.176   0.325
 3763WAT     H211692   2.131   0.166   0.472
 3764WAT      O11693   6.794   4.594   5.871
 3764WAT     H111694   6.873   4.588   5.925
 3764WAT     H211695   6.729   4.541   5.918
 3765WAT      O11696   0.356   4.733   3.944
 3765WAT     H111697   0.366   4.812   3.891
 3765WAT     H211698   0.388   4.757   4.030
 3766WAT      O11699   5.114   0.452   2.870
 3766WAT     H111700   5.152   0.494   2.947
 3766WAT     H211701   5.183   0.394   2.838
 3767WAT      O11702   7.472   5.071   3.524
 3767WAT     H111703   7.553   5.091   3.476
 3767WAT     H211704   7.406   5.057   3.457
 3768WAT      O11705   1.324   6.549   4.736
 3768WAT     H111706   1.389   6.618   4.748
 3768WAT     H211707   1.259   6.587   4.676
 3769WAT      O11708   4.053   5.892   1.373
 3769WAT     H111709   4.101   5.810   1.386
 3769WAT     H211710   4.060   5.909   1.279
 3770WAT      O11711   6.206   3.356   3.947
 3770WAT     H111712   6.235   3.271   3.980
 3770WAT     H211713   6.184   3.340   3.855
 3771WAT      O11714   2.583   0.023   3.772
 3771WAT     H111715   2.615   0.043   3.684
 3771WAT     H211716   2.558   0.108   3.808
 3772WAT      O11717   4.025   4.282   5.013
 3772WAT     H111718   3.947   4.338   5.011
 3772WAT     H211719   4.083   4.318   4.947
 3773WAT      O11720   0.983   4.015   5.263
 3773WAT     H111721   0.922   4.014   5.190
 3773WAT     H211722   1.062   3.974   5.229
 3774WAT      O11723   5.008   5.274   0.937
 3774WAT     H111724   5.013   5.260   0.843
 3774WAT     H211725   5.096   5.304   0.961
 3775WAT      O11726   0.591   1.653   1.486
 3775WAT     H111727   0.635   1.681   1.406
 3775WAT     H211728   0.582   1.558   1.476
 3776WAT      O11729   3.437   5.092   1.611
 3776WAT     H111730   3.434   4.996   1.612
 3776WAT     H211731   3.384   5.118   1.686
 3777WAT      O11732   1.057   3.021   4.956
 3777WAT     H111733   1.102   2.953   5.007
 3777WAT     H211734   1.118   3.094   4.955
 3778WAT      O11735   4.492   3.280   5.531
 3778WAT     H111736   4.489   3.327   5.448
 3778WAT     H211737   4.451   3.196   5.512
 3779WAT      O11738   4.762   6.798   0.102
 3779WAT     H111739   4.698   6.867   0.120
 3779WAT     H211740   4.714   6.717   0.115
 3780WAT      O11741   7.030   5.405   3.252
 3780WAT     H111742   7.018   5.314   3.224
 3780WAT     H211743   7.125   5.419   3.246
 3781WAT      O11744   2.118   5.289   0.596
 3781WAT     H111745   2.161   5.277   0.511
 3781WAT     H211746   2.177   5.247   0.659
 3782WAT      O11747   2.010   3.601   3.848
 3782WAT     H111748   2.073   3.539   3.811
 3782WAT     H211749   2.037   3.686   3.814
 3783WAT      O11750   2.792   3.091   1.050
 3783WAT     H111751   2.721   3.030   1.029
 3783WAT     H211752   2.760   3.176   1.019
 3784WAT      O11753   6.891   0.650   5.403
 3784WAT     H111754   6.815   0.637   5.348
 3784WAT     H211755   6.895   0.745   5.416
 3785WAT      O11756   0.363   7.052   6.084
 3785WAT     H111757   0.394   7.141   6.066
 3785WAT     H211758   0.346   7.015   5.997
 3786WAT      O11759   0.311   4.399   3.747
 3786WAT     H111760   0.352   4.410   3.661
 3786WAT     H211761   0.220   4.425   3.734
 3787WAT      O11762   1.995   0.477   4.462
 3787WAT     H111763   2.086   0.502   4.480
 3787WAT     H211764   1.949   0.495   4.543
 3788WAT      O11765   4.765   4.619   2.404
 3788WAT     H111766   4.695   4.682   2.389
 3788WAT     H211767   4.846   4.669   2.390
 3789WAT      O11768   0.483   1.257   5.939
 3789WAT     H111769   0.489   1.209   6.022
 3789WAT     H211770   0.418   1.325   5.956
 3790WAT      O11771   1.141   6.221   0.059
 3790WAT     H111772   1.059   6.233   0.010
 3790WAT     H211773   1.115   6.169   0.135
 3791WAT      O11774   5.737   2.846   0.290
 3791WAT     H111775   5.675   2.844   0.216
 3791WAT     H211776   5.792   2.770   0.277
 3792WAT      O11777   0.226   2.793   1.070
 3792WAT     H111778   0.182   2.748   0.997
 3792WAT     H211779   0.217   2.886   1.050
 3793WAT      O11780   1.607   0.556   1.043
 3793WAT     H111781   1.631   0.493   0.975
 3793WAT     H211782   1.690   0.592   1.073
 3794WAT      O11783   5.371   4.192   0.672
 3794WAT     H111784   5.291   4.185   0.620
 3794WAT     H211785   5.379   4.285   0.692
 3795WAT      O11786   3.345   2.312   0.571
 3795WAT     H111787   3.286   2.374   0.529
 3795WAT     H211788   3.336   2.232   0.520
 3796WAT      O11789   6.733   4.713   4.330
 3796WAT     H111790   6.653   4.660   4.337
 3796WAT     H211791   6.791   4.662   4.274
 3797WAT      O11792   6.102   0.427   2.878
 3797WAT     H111793   6.193   0.416   2.851
 3797WAT     H211794   6.055   0.446   2.797
 3798WAT      O11795   4.239   2.507   1.799
 3798WAT     H111796   4.292   2.575   1.757
 3798WAT     H211797   4.300   2.459   1.854
 3799WAT      O11798   7.093   4.449   5.021
 3799WAT     H111799   7.113   4.473   4.930
 3799WAT     H211800   7.178   4.453   5.066
 3800WAT      O11801   2.077   2.523   1.823
 3800WAT     H111802   2.043   2.462   1.757
 3800WAT     H211803   2.160   2.555   1.786
 3801WAT      O11804   1.992   0.513   1.967
 3801WAT     H111805   1.952   0.502   1.880
 3801WAT     H211806   2.065   0.450   1.967
 3802WAT      O11807   3.447   0.874   1.655
 3802WAT     H111808   3.415   0.954   1.612
 3802WAT     H211809   3.466   0.814   1.584
 3803WAT      O11810   1.865   2.300   0.739
 3803WAT     H111811   1.843   2.393   0.741
 3803WAT     H211812   1.797   2.258   0.791
 3804WAT      O11813   6.947   4.123   3.301
 3804WAT     H111814   6.964   4.137   3.208
 3804WAT     H211815   7.030   4.091   3.336
 3805WAT      O11816   4.689   3.585   5.758
 3805WAT     H111817   4.629   3.515   5.786
 3805WAT     H211818   4.766   3.538   5.726
 3806WAT      O11819   0.941   5.897   1.692
 3806WAT     H111820   0.963   5.919   1.602
 3806WAT     H211821   1.005   5.831   1.718
 3807WAT      O11822   3.914   0.049   1.851
 3807WAT     H111823   3.971   0.105   1.903
 3807WAT     H211824   3.863   0.110   1.797
 3808WAT      O11825   3.997   0.490   5.876
 3808WAT     H111826   3.983   0.446   5.792
 3808WAT     H211827   3.988   0.420   5.941
 3809WAT      O11828   2.319   5.715   3.328
 3809WAT     H111829   2.296   5.753   3.413
 3809WAT     H211830   2.413   5.696   3.335
 3810WAT      O11831   4.524   4.671   1.839
 3810WAT     H111832   4.432   4.654   1.819
 3810WAT     H211833   4.572   4.636   1.764
 3811WAT      O11834   4.111   0.471   2.858
 3811WAT     H111835   4.073   0.385   2.872
 3811WAT     H211836   4.075   0.526   2.928
 3812WAT      O11837   0.253   0.141   2.150
 3812WAT     H111838   0.222   0.206   2.087
 3812WAT     H211839   0.183   0.076   2.155
 3813WAT      O11840   5.131   2.481   4.477
 3813WAT     H111841   5.109   2.570   4.504
 3813WAT     H211842   5.047   2.437   4.466
 3814WAT      O11843   2.861   4.764   3.095
 3814WAT     H111844   2.847   4.693   3.032
 3814WAT     H211845   2.913   4.829   3.046
 3815WAT      O11846   3.292   0.263   0.130
 3815WAT     H111847   3.308   0.172   0.106
 3815WAT     H211848   3.376   0.307   0.115
 3816WAT      O11849   2.230   4.526   1.617
 3816WAT     H111850   2.172   4.598   1.641
 3816WAT     H211851   2.268   4.498   1.700
 3817WAT      O11852   2.941   2.840   0.373
 3817WAT     H111853   2.881   2.841   0.448
 3817WAT     H211854   2.946   2.748   0.348
 3818WAT      O11855   2.908   2.133   5.805
 3818WAT     H111856   2.952   2.095   5.881
 3818WAT     H211857   2.844   2.068   5.779
 3819WAT      O11858   7.608   3.696   4.122
 3819WAT     H111859   7.648   3.755   4.059
 3819WAT     H211860   7.653   3.716   4.205
 3820WAT      O11861   2.127   4.989   3.888
 3820WAT     H111862   2.206   5.029   3.854
 3820WAT     H211863   2.114   4.911   3.834
 3821WAT      O11864   5.977   1.724   2.749
 3821WAT     H111865   6.027   1.674   2.685
 3821WAT     H211866   6.042   1.782   2.790
 3822WAT      O11867   0.397   5.503   1.981
 3822WAT     H111868   0.466   5.477   1.920
 3822WAT     H211869   0.316   5.496   1.930
 3823WAT      O11870   5.236   4.259   3.328
 3823WAT     H111871   5.147   4.282   3.355
 3823WAT     H211872   5.291   4.327   3.367
 3824WAT      O11873   1.364   4.709   5.007
 3824WAT     H111874   1.437   4.696   5.068
 3824WAT     H211875   1.406   4.726   4.923
 3825WAT      O11876   7.049   1.506   2.194
 3825WAT     H111877   7.095   1.470   2.117
 3825WAT     H211878   7.000   1.581   2.159
 3826WAT      O11879   2.142   4.164   1.643
 3826WAT     H111880   2.214   4.213   1.682
 3826WAT     H211881   2.063   4.203   1.681
 3827WAT      O11882   6.251   2.424   1.469
 3827WAT     H111883   6.224   2.338   1.438
 3827WAT     H211884   6.199   2.486   1.417
 3828WAT      O11885   3.198   1.831   0.520
 3828WAT     H111886   3.267   1.888   0.555
 3828WAT     H211887   3.160   1.881   0.449
 3829WAT      O11888   1.542   0.927   5.148
 3829WAT     H111889   1.526   0.957   5.059
 3829WAT     H211890   1.489   0.849   5.158
 3830WAT      O11891   1.971   6.559   0.442
 3830WAT     H111892   1.910   6.606   0.385
 3830WAT     H211893   2.048   6.544   0.386
 3831WAT      O11894   4.602   2.289   2.130
 3831WAT     H111895   4.650   2.207   2.143
 3831WAT     H211896   4.630   2.344   2.203
 3832WAT      O11897   0.611   5.897   6.199
 3832WAT     H111898   0.646   5.920   6.112
 3832WAT     H211899   0.612   5.801   6.200
 3833WAT      O11900   3.380   0.695   2.386
 3833WAT     H111901   3.312   0.709   2.320
 3833WAT     H211902   3.450   0.754   2.360
 3834WAT      O11903   5.727   3.848   0.744
 3834WAT     H111904   5.780   3.913   0.792
 3834WAT     H211905   5.734   3.768   0.796
 3835WAT      O11906   0.667   5.987   4.206
 3835WAT     H111907   0.718   5.907   4.194
 3835WAT     H211908   0.701   6.047   4.139
 3836WAT      O11909   7.604   4.847   2.303
 3836WAT     H111910   7.696   4.821   2.312
 3836WAT     H211911   7.581   4.824   2.213
 3837WAT      O11912   7.486   4.524   2.986
 3837WAT     H111913   7.552   4.519   3.055
 3837WAT     H211914   7.531   4.561   2.911
 3838WAT      O11915   6.884   5.112   4.752
 3838WAT     H111916   6.955   5.055   4.722
 3838WAT     H211917   6.894   5.116   4.847
 3839WAT      O11918   3.768   2.901   1.196
 3839WAT     H111919   3.727   2.946   1.122
 3839WAT     H211920   3.861   2.927   1.191
 3840WAT      O11921   5.999   3.892   1.065
 3840WAT     H111922   6.073   3.882   1.005
 3840WAT     H211923   5.937   3.948   1.018
 3841WAT      O11924   7.004   4.842   2.274
 3841WAT     H111925   7.083   4.863   2.324
 3841WAT     H211926   7.015   4.889   2.192
 3842WAT      O11927   3.391   0.567   5.077
 3842WAT     H111928   3.364   0.519   4.999
 3842WAT     H211929   3.395   0.501   5.146
 3843WAT      O11930   1.952   3.574   2.356
 3843WAT     H111931   2.002   3.502   2.317
 3843WAT     H211932   2.007   3.604   2.429
 3844WAT      O11933   7.227   0.216   0.991
 3844WAT     H111934   7.238   0.255   1.078
 3844WAT     H211935   7.229   0.122   1.007
 3845WAT      O11936   1.238   7.027   2.668
 3845WAT     H111937   1.307   7.081   2.707
 3845WAT     H211938   1.257   7.028   2.574
 3846WAT      O11939   0.753   3.564   3.260
 3846WAT     H111940   0.739   3.565   3.166
 3846WAT     H211941   0.765   3.471   3.282
 3847WAT      O11942   6.967   6.997   0.736
 3847WAT     H111943   7.009   6.919   0.700
 3847WAT     H211944   6.976   6.988   0.831
 3848WAT      O11945   2.106   3.485   0.790
 3848WAT     H111946   2.024   3.506   0.834
 3848WAT     H211947   2.080   3.447   0.706
 3849WAT      O11948   6.053   0.982   1.829
 3849WAT     H111949   6.135   0.961   1.874
 3849WAT     H211950   6.044   1.077   1.838
 3850WAT      O11951   6.798   0.702   0.280
 3850WAT     H111952   6.737   0.681   0.351
 3850WAT     H211953   6.848   0.622   0.267
 3851WAT      O11954   5.337   4.724   1.485
 3851WAT     H111955   5.395   4.782   1.436
 3851WAT     H211956   5.310   4.777   1.561
 3852WAT      O11957   1.784   4.206   0.433
 3852WAT     H111958   1.784   4.222   0.528
 3852WAT     H211959   1.733   4.126   0.422
 3853WAT      O11960   2.202   5.654   5.565
 3853WAT     H111961   2.240   5.589   5.624
 3853WAT     H211962   2.161   5.601   5.496
 3854WAT      O11963   6.263   3.098   3.753
 3854WAT     H111964   6.186   3.155   3.750
 3854WAT     H211965   6.279   3.075   3.661
 3855WAT      O11966   1.959   1.041   1.175
 3855WAT     H111967   1.950   1.130   1.141
 3855WAT     H211968   1.907   0.987   1.115
 3856WAT      O11969   2.101   4.533   5.707
 3856WAT     H111970   2.033   4.468   5.696
 3856WAT     H211971   2.161   4.494   5.771
 3857WAT      O11972   5.468   0.623   3.080
 3857WAT     H111973   5.434   0.684   3.145
 3857WAT     H211974   5.456   0.668   2.996
 3858WAT      O11975   3.778   2.739   5.144
 3858WAT     H111976   3.738   2.653   5.161
 3858WAT     H211977   3.754   2.759   5.053
 3859WAT      O11978   1.922   1.207   0.604
 3859WAT     H111979   1.849   1.265   0.626
 3859WAT     H211980   1.995   1.238   0.657
 3860WAT      O11981   0.927   2.337   4.015
 3860WAT     H111982   0.858   2.335   3.949
 3860WAT     H211983   0.903   2.410   4.072
 3861WAT      O11984   6.866   3.919   0.359
 3861WAT     H111985   6.784   3.873   0.341
 3861WAT     H211986   6.839   4.001   0.400
 3862WAT      O11987   3.871   2.392   3.334
 3862WAT     H111988   3.919   2.381   3.252
 3862WAT     H211989   3.937   2.415   3.398
 3863WAT      O11990   2.569   5.929   0.298
 3863WAT     H111991   2.542   5.990   0.229
 3863WAT     H211992   2.632   5.979   0.351
 3864WAT      O11993   6.349   2.478   0.555
 3864WAT     H111994   6.424   2.519   0.512
 3864WAT     H211995   6.275   2.493   0.496
 3865WAT      O11996   0.584   6.439   1.198
 3865WAT     H111997   0.640   6.482   1.134
 3865WAT     H211998   0.600   6.345   1.184
 3866WAT      O11999   5.053   6.241   1.327
 3866WAT     H112000   5.034   6.157   1.285
 3866WAT     H212001   5.085   6.296   1.256
 3867WAT      O12002   3.268   4.772   1.098
 3867WAT     H112003   3.361   4.786   1.116
 3867WAT     H212004   3.265   4.689   1.051
 3868WAT      O12005   2.418   4.031   1.701
 3868WAT     H112006   2.426   3.940   1.728
 3868WAT     H212007   2.324   4.050   1.707
 3869WAT      O12008   5.971   2.211   2.199
 3869WAT     H112009   5.919   2.147   2.247
 3869WAT     H212010   6.055   2.213   2.246
 3870WAT      O12011   3.518   2.879   3.731
 3870WAT     H112012   3.558   2.881   3.645
 3870WAT     H212013   3.499   2.786   3.746
 3871WAT      O12014   5.725   7.026   3.651
 3871WAT     H112015   5.716   7.104   3.706
 3871WAT     H212016   5.791   6.973   3.695
 3872WAT      O12017   0.171   1.451   4.314
 3872WAT     H112018   0.226   1.385   4.356
 3872WAT     H212019   0.165   1.521   4.378
 3873WAT      O12020   6.605   6.047   2.286
 3873WAT     H112021   6.691   6.026   2.248
 3873WAT     H212022   6.582   6.131   2.248
 3874WAT      O12023   5.134   2.757   4.547
 3874WAT     H112024   5.211   2.748   4.602
 3874WAT     H212025   5.161   2.818   4.478
 3875WAT      O12026   7.587   2.531   4.219
 3875WAT     H112027   7.498   2.562   4.235
 3875WAT     H212028   7.616   2.496   4.303
 3876WAT      O12029   3.637   4.567   5.043
 3876WAT     H112030   3.627   4.472   5.049
 3876WAT     H212031   3.728   4.580   5.018
 3877WAT      O12032   2.633   1.918   5.276
 3877WAT     H112033   2.585   1.956   5.203
 3877WAT     H212034   2.705   1.979   5.292
 3878WAT      O12035   3.860   3.926   2.022
 3878WAT     H112036   3.856   4.000   2.083
 3878WAT     H212037   3.950   3.894   2.028
 3879WAT      O12038   6.987   0.972   4.432
 3879WAT     H112039   7.079   0.957   4.452
 3879WAT     H212040   6.940   0.911   4.489
 3880WAT      O12041   4.390   1.113   1.864
 3880WAT     H112042   4.458   1.178   1.846
 3880WAT     H212043   4.346   1.098   1.781
 3881WAT      O12044   1.612   1.845   2.783
 3881WAT     H112045   1.588   1.931   2.817
 3881WAT     H212046   1.679   1.813   2.845
 3882WAT      O12047   3.038   3.298   3.567
 3882WAT     H112048   3.119   3.264   3.528
 3882WAT     H212049   3.025   3.383   3.526
 3883WAT      O12050   3.844   0.401   4.907
 3883WAT     H112051   3.774   0.347   4.872
 3883WAT     H212052   3.803   0.484   4.929
 3884WAT      O12053   0.405   6.684   5.460
 3884WAT     H112054   0.331   6.656   5.407
 3884WAT     H212055   0.415   6.777   5.440
 3885WAT      O12056   5.624   3.163   6.042
 3885WAT     H112057   5.606   3.211   5.961
 3885WAT     H212058   5.591   3.220   6.112
 3886WAT      O12059   4.812   5.149   5.636
 3886WAT     H112060   4.723   5.112   5.634
 3886WAT     H212061   4.825   5.172   5.728
 3887WAT      O12062   1.087   1.882   2.425
 3887WAT     H112063   1.114   1.842   2.342
 3887WAT     H212064   1.087   1.976   2.407
 3888WAT      O12065   5.407   1.256   1.883
 3888WAT     H112066   5.464   1.266   1.807
 3888WAT     H212067   5.393   1.345   1.915
 3889WAT      O12068   2.508   0.687   4.209
 3889WAT     H112069   2.522   0.744   4.134
 3889WAT     H212070   2.440   0.626   4.181
 3890WAT      O12071   3.958   1.854   0.143
 3890WAT     H112072   3.911   1.875   0.062
 3890WAT     H212073   3.940   1.762   0.159
 3891WAT      O12074   4.471   3.630   2.295
 3891WAT     H112075   4.443   3.547   2.256
 3891WAT     H212076   4.391   3.681   2.304
 3892WAT      O12077   0.245   3.065   6.148
 3892WAT     H112078   0.205   3.128   6.208
 3892WAT     H212079   0.306   3.015   6.203
 3893WAT      O12080   4.536   1.476   2.372
 3893WAT     H112081   4.473   1.456   2.442
 3893WAT     H212082   4.523   1.569   2.354
 3894WAT      O12083   4.960   7.095   2.583
 3894WAT     H112084   5.041   7.058   2.548
 3894WAT     H212085   4.979   7.188   2.595
 3895WAT      O12086   5.928   5.069   0.018
 3895WAT     H112087   5.838   5.061  -0.012
 3895WAT     H212088   5.981   5.052  -0.060
 3896WAT      O12089   4.696   4.024   2.285
 3896WAT     H112090   4.749   4.008   2.207
 3896WAT     H212091   4.613   3.979   2.267
 3897WAT      O12092   4.099   1.667   3.127
 3897WAT     H112093   4.069   1.587   3.171
 3897WAT     H212094   4.056   1.665   3.042
 3898WAT      O12095   5.374   1.829   4.093
 3898WAT     H112096   5.358   1.919   4.064
 3898WAT     H212097   5.458   1.805   4.053
 3899WAT      O12098   2.390   0.933   0.702
 3899WAT     H112099   2.421   1.010   0.750
 3899WAT     H212100   2.468   0.879   0.690
 3900WAT      O12101   6.169   2.101   3.589
 3900WAT     H112102   6.157   2.183   3.541
 3900WAT     H212103   6.123   2.035   3.537
 3901WAT      O12104   2.550   1.469   0.970
 3901WAT     H112105   2.466   1.515   0.963
 3901WAT     H212106   2.568   1.437   0.882
 3902WAT      O12107   2.548   2.287   3.186
 3902WAT     H112108   2.615   2.356   3.180
 3902WAT     H212109   2.492   2.302   3.110
 3903WAT      O12110   2.104   3.372   6.086
 3903WAT     H112111   2.158   3.294   6.088
 3903WAT     H212112   2.109   3.403   5.996
 3904WAT      O12113   6.772   5.563   3.277
 3904WAT     H112114   6.766   5.600   3.189
 3904WAT     H212115   6.846   5.503   3.273
 3905WAT      O12116   3.506   2.922   4.907
 3905WAT     H112117   3.411   2.911   4.912
 3905WAT     H212118   3.536   2.847   4.857
 3906WAT      O12119   6.240   4.695   2.247
 3906WAT     H112120   6.219   4.777   2.291
 3906WAT     H212121   6.162   4.676   2.195
 3907WAT      O12122   4.251   0.561   1.927
 3907WAT     H112123   4.201   0.600   1.998
 3907WAT     H212124   4.186   0.537   1.860
 3908WAT      O12125   1.652   5.961   3.224
 3908WAT     H112126   1.670   5.884   3.170
 3908WAT     H212127   1.721   6.023   3.201
 3909WAT      O12128   3.376   5.049   4.647
 3909WAT     H112129   3.329   4.972   4.618
 3909WAT     H212130   3.399   5.030   4.738
 3910WAT      O12131   7.357   1.339   1.086
 3910WAT     H112132   7.377   1.315   0.995
 3910WAT     H212133   7.432   1.390   1.114
 3911WAT      O12134   3.309   3.514   0.823
 3911WAT     H112135   3.338   3.522   0.914
 3911WAT     H212136   3.225   3.560   0.820
 3912WAT      O12137   0.528   1.141   2.051
 3912WAT     H112138   0.610   1.102   2.082
 3912WAT     H212139   0.553   1.192   1.974
 3913WAT      O12140   2.541   6.888   6.058
 3913WAT     H112141   2.447   6.869   6.068
 3913WAT     H212142   2.545   6.946   5.982
 3914WAT      O12143   6.715   4.550   3.270
 3914WAT     H112144   6.751   4.513   3.189
 3914WAT     H212145   6.624   4.520   3.272
 3915WAT      O12146   6.050   4.416   1.064
 3915WAT     H112147   5.956   4.427   1.084
 3915WAT     H212148   6.056   4.432   0.970
 3916WAT      O12149   2.610   5.804   5.331
 3916WAT     H112150   2.694   5.767   5.303
 3916WAT     H212151   2.582   5.859   5.258
 3917WAT      O12152   2.326   4.712   5.829
 3917WAT     H112153   2.282   4.631   5.800
 3917WAT     H212154   2.258   4.760   5.876
 3918WAT      O12155   0.097   4.474   5.516
 3918WAT     H112156   0.175   4.452   5.463
 3918WAT     H212157   0.120   4.444   5.604
 3919WAT      O12158   5.486   3.615   4.809
 3919WAT     H112159   5.580   3.607   4.792
 3919WAT     H212160   5.466   3.539   4.863
 3920WAT      O12161   2.923   0.351   1.115
 3920WAT     H112162   2.854   0.408   1.081
 3920WAT     H212163   3.004   0.389   1.082
 3921WAT      O12164   5.181   6.520   5.278
 3921WAT     H112165   5.198   6.472   5.359
 3921WAT     H212166   5.180   6.612   5.303
 3922WAT      O12167   7.237   5.490   5.955
 3922WAT     H112168   7.302   5.424   5.933
 3922WAT     H212169   7.287   5.559   5.999
 3923WAT      O12170   3.179   3.011   3.028
 3923WAT     H112171   3.258   3.042   3.072
 3923WAT     H212172   3.135   3.091   2.998
 3924WAT      O12173   2.131   2.523   0.643
 3924WAT     H112174   2.146   2.481   0.727
 3924WAT     H212175   2.036   2.529   0.635
 3925WAT      O12176   6.030   1.321   2.389
 3925WAT     H112177   5.935   1.322   2.405
 3925WAT     H212178   6.047   1.402   2.340
 3926WAT      O12179   6.272   4.997   3.528
 3926WAT     H112180   6.363   5.020   3.545
 3926WAT     H212181   6.255   5.028   3.439
 3927WAT      O12182   1.040   3.660   3.202
 3927WAT     H112183   0.955   3.673   3.160
 3927WAT     H212184   1.103   3.705   3.145
 3928WAT      O12185   2.436   1.832   1.304
 3928WAT     H112186   2.499   1.764   1.280
 3928WAT     H212187   2.395   1.856   1.221
 3929WAT      O12188   3.628   3.053   2.320
 3929WAT     H112189   3.616   3.126   2.381
 3929WAT     H212190   3.712   3.014   2.346
 3930WAT      O12191   1.088   5.851   6.138
 3930WAT     H112192   1.159   5.804   6.094
 3930WAT     H212193   1.054   5.911   6.072
 3931WAT      O12194   3.185   6.370   3.822
 3931WAT     H112195   3.099   6.339   3.852
 3931WAT     H212196   3.224   6.293   3.780
 3932WAT      O12197   4.937   2.258   0.854
 3932WAT     H112198   4.944   2.165   0.836
 3932WAT     H212199   4.873   2.290   0.790
 3933WAT      O12200   0.547   3.357   5.910
 3933WAT     H112201   0.508   3.305   5.839
 3933WAT     H212202   0.588   3.431   5.865
 3934WAT      O12203   6.458   2.776   4.232
 3934WAT     H112204   6.477   2.852   4.177
 3934WAT     H212205   6.383   2.734   4.189
 3935WAT      O12206   5.976   7.154   5.224
 3935WAT     H112207   6.008   7.202   5.300
 3935WAT     H212208   5.942   7.072   5.259
 3936WAT      O12209   5.435   5.510   5.561
 3936WAT     H112210   5.360   5.453   5.576
 3936WAT     H212211   5.452   5.550   5.646
 3937WAT      O12212   1.925   2.745   0.427
 3937WAT     H112213   1.993   2.700   0.377
 3937WAT     H212214   1.946   2.838   0.418
 3938WAT      O12215   3.165   3.698   1.458
 3938WAT     H112216   3.178   3.660   1.545
 3938WAT     H212217   3.084   3.747   1.465
 3939WAT      O12218   1.996   5.129   5.158
 3939WAT     H112219   2.021   5.089   5.075
 3939WAT     H212220   1.989   5.222   5.140
 3940WAT      O12221   1.906   5.512   3.751
 3940WAT     H112222   1.835   5.557   3.706
 3940WAT     H212223   1.975   5.502   3.685
 3941WAT      O12224   7.599   0.106   1.534
 3941WAT     H112225   7.628   0.017   1.558
 3941WAT     H212226   7.661   0.134   1.467
 3942WAT      O12227   1.484   2.987   5.007
 3942WAT     H112228   1.497   2.902   4.965
 3942WAT     H212229   1.483   3.050   4.935
 3943WAT      O12230   5.136   4.008   2.975
 3943WAT     H112231   5.075   4.012   3.048
 3943WAT     H212232   5.082   4.027   2.898
 3944WAT      O12233   5.431   0.282   3.394
 3944WAT     H112234   5.499   0.228   3.354
 3944WAT     H212235   5.349   0.241   3.367
 3945WAT      O12236   2.245   4.411   1.920
 3945WAT     H112237   2.327   4.432   1.964
 3945WAT     H212238   2.179   4.414   1.990
 3946WAT      O12239   1.608   0.348   2.304
 3946WAT     H112240   1.621   0.420   2.366
 3946WAT     H212241   1.649   0.273   2.347
 3947WAT      O12242   6.560   5.816   5.409
 3947WAT     H112243   6.633   5.771   5.366
 3947WAT     H212244   6.486   5.756   5.401
 3948WAT      O12245   7.155   0.860   0.728
 3948WAT     H112246   7.107   0.785   0.693
 3948WAT     H212247   7.217   0.884   0.659
 3949WAT      O12248   2.168   2.770   4.660
 3949WAT     H112249   2.200   2.849   4.617
 3949WAT     H212250   2.205   2.698   4.610
 3950WAT      O12251   2.834   0.006   3.604
 3950WAT     H112252   2.842  -0.050   3.681
 3950WAT     H212253   2.853   0.094   3.635
 3951WAT      O12254   3.758   5.495   3.520
 3951WAT     H112255   3.797   5.487   3.433
 3951WAT     H212256   3.667   5.470   3.508
 3952WAT      O12257   7.296   5.211   4.277
 3952WAT     H112258   7.362   5.212   4.207
 3952WAT     H212259   7.242   5.135   4.257
 3953WAT      O12260   3.382   4.778   5.842
 3953WAT     H112261   3.467   4.759   5.802
 3953WAT     H212262   3.404   4.813   5.929
 3954WAT      O12263   0.784   0.364   1.471
 3954WAT     H112264   0.826   0.282   1.498
 3954WAT     H212265   0.852   0.431   1.483
 3955WAT      O12266   1.203   1.312   3.277
 3955WAT     H112267   1.248   1.229   3.290
 3955WAT     H212268   1.268   1.370   3.238
 3956WAT      O12269   5.053   2.696   0.201
 3956WAT     H112270   5.055   2.706   0.106
 3956WAT     H212271   5.006   2.614   0.215
 3957WAT      O12272   5.862   6.558   1.304
 3957WAT     H112273   5.857   6.465   1.282
 3957WAT     H212274   5.894   6.600   1.224
 3958WAT      O12275   6.903   2.640   4.832
 3958WAT     H112276   6.976   2.669   4.777
 3958WAT     H212277   6.848   2.717   4.841
 3959WAT      O12278   5.414   3.325   3.133
 3959WAT     H112279   5.503   3.297   3.114
 3959WAT     H212280   5.386   3.270   3.206
 3960WAT      O12281   3.089   7.087   5.257
 3960WAT     H112282   3.174   7.100   5.215
 3960WAT     H212283   3.068   7.173   5.295
 3961WAT      O12284   4.697   2.715   1.933
 3961WAT     H112285   4.744   2.636   1.909
 3961WAT     H212286   4.685   2.708   2.028
 3962WAT      O12287   0.684   7.139   4.814
 3962WAT     H112288   0.694   7.196   4.737
 3962WAT     H212289   0.757   7.077   4.807
 3963WAT      O12290   1.844   2.136   0.424
 3963WAT     H112291   1.866   2.122   0.516
 3963WAT     H212292   1.919   2.186   0.389
 3964WAT      O12293   6.505   4.378   5.766
 3964WAT     H112294   6.559   4.299   5.758
 3964WAT     H212295   6.493   4.407   5.675
 3965WAT      O12296   6.638   6.373   4.684
 3965WAT     H112297   6.649   6.313   4.610
 3965WAT     H212298   6.664   6.321   4.760
 3966WAT      O12299   7.230   3.943   2.905
 3966WAT     H112300   7.313   3.925   2.860
 3966WAT     H212301   7.253   4.006   2.973
 3967WAT      O12302   3.642   0.176   2.910
 3967WAT     H112303   3.695   0.231   2.852
 3967WAT     H212304   3.561   0.225   2.922
 3968WAT      O12305   4.365   6.979   4.984
 3968WAT     H112306   4.414   6.963   4.903
 3968WAT     H212307   4.275   6.956   4.963
 3969WAT      O12308   3.770   5.796   3.759
 3969WAT     H112309   3.772   5.831   3.670
 3969WAT     H212310   3.843   5.838   3.803
 3970WAT      O12311   6.250   2.479   4.889
 3970WAT     H112312   6.222   2.402   4.840
 3970WAT     H212313   6.336   2.501   4.852
 3971WAT      O12314   5.874   6.564   4.821
 3971WAT     H112315   5.962   6.541   4.791
 3971WAT     H212316   5.834   6.481   4.845
 3972WAT      O12317   6.381   5.270   2.713
 3972WAT     H112318   6.341   5.351   2.745
 3972WAT     H212319   6.472   5.274   2.743
 3973WAT      O12320   1.889   1.016   4.263
 3973WAT     H112321   1.955   0.947   4.272
 3973WAT     H212322   1.938   1.092   4.234
 3974WAT      O12323   2.350   6.754   4.307
 3974WAT     H112324   2.387   6.692   4.245
 3974WAT     H212325   2.330   6.832   4.255
 3975WAT      O12326   6.689   5.002   1.438
 3975WAT     H112327   6.644   4.924   1.405
 3975WAT     H212328   6.694   5.061   1.362
 3976WAT      O12329   0.268   3.287   2.751
 3976WAT     H112330   0.344   3.234   2.728
 3976WAT     H212331   0.304   3.371   2.780
 3977WAT      O12332   4.145   3.357   1.445
 3977WAT     H112333   4.056   3.360   1.480
 3977WAT     H212334   4.133   3.354   1.350
 3978WAT      O12335   1.443   6.998   1.580
 3978WAT     H112336   1.467   7.086   1.610
 3978WAT     H212337   1.512   6.941   1.613
 3979WAT      O12338   1.573   1.164   1.127
 3979WAT     H112339   1.611   1.126   1.206
 3979WAT     H212340   1.640   1.225   1.095
 3980WAT      O12341   0.426   6.954   5.439
 3980WAT     H112342   0.515   6.962   5.406
 3980WAT     H212343   0.370   6.966   5.363
 3981WAT      O12344   2.647   0.319   4.096
 3981WAT     H112345   2.574   0.335   4.156
 3981WAT     H212346   2.613   0.343   4.010
 3982WAT      O12347   3.379   0.292   3.405
 3982WAT     H112348   3.312   0.351   3.440
 3982WAT     H212349   3.368   0.210   3.454
 3983WAT      O12350   7.422   0.011   3.033
 3983WAT     H112351   7.396  -0.076   3.001
 3983WAT     H212352   7.428   0.065   2.953
 3984WAT      O12353   5.281   6.778   2.259
 3984WAT     H112354   5.252   6.842   2.193
 3984WAT     H212355   5.219   6.705   2.250
 3985WAT      O12356   2.438   4.713   4.048
 3985WAT     H112357   2.370   4.656   4.013
 3985WAT     H212358   2.390   4.792   4.075
 3986WAT      O12359   0.713   3.720   1.767
 3986WAT     H112360   0.780   3.686   1.826
 3986WAT     H212361   0.713   3.815   1.782
 3987WAT      O12362   6.555   6.651   4.861
 3987WAT     H112363   6.633   6.621   4.909
 3987WAT     H212364   6.552   6.596   4.783
 3988WAT      O12365   4.970   6.736   5.557
 3988WAT     H112366   4.940   6.827   5.548
 3988WAT     H212367   4.927   6.705   5.636
 3989WAT      O12368   2.758   4.332   4.537
 3989WAT     H112369   2.808   4.386   4.475
 3989WAT     H212370   2.682   4.303   4.487
 3990WAT      O12371   4.359   6.106   1.132
 3990WAT     H112372   4.349   6.069   1.044
 3990WAT     H212373   4.388   6.032   1.185
 3991WAT      O12374   1.263   2.972   4.056
 3991WAT     H112375   1.334   3.012   4.105
 3991WAT     H212376   1.200   3.043   4.043
 3992WAT      O12377   6.268   1.200   3.524
 3992WAT     H112378   6.351   1.240   3.550
 3992WAT     H212379   6.291   1.142   3.451
 3993WAT      O12380   7.283   4.777   4.816
 3993WAT     H112381   7.356   4.828   4.780
 3993WAT     H212382   7.241   4.738   4.740
 3994WAT      O12383   5.189   0.198   4.696
 3994WAT     H112384   5.144   0.206   4.612
 3994WAT     H212385   5.121   0.174   4.758
 3995WAT      O12386   6.822   6.458   0.161
 3995WAT     H112387   6.821   6.478   0.068
 3995WAT     H212388   6.737   6.416   0.178
 3996WAT      O12389   2.232   1.457   3.567
 3996WAT     H112390   2.230   1.541   3.520
 3996WAT     H212391   2.140   1.430   3.571
 3997WAT      O12392   5.057   3.771   0.640
 3997WAT     H112393   5.138   3.781   0.590
 3997WAT     H212394   4.990   3.813   0.587
 3998WAT      O12395   0.464   3.751   1.561
 3998WAT     H112396   0.529   3.724   1.626
 3998WAT     H212397   0.509   3.739   1.477
 3999WAT      O12398   0.699   0.446   1.850
 3999WAT     H112399   0.621   0.430   1.902
 3999WAT     H212400   0.768   0.398   1.894
 4000WAT      O12401   0.111   1.630   0.490
 4000WAT     H112402   0.042   1.694   0.474
 4000WAT     H212403   0.154   1.661   0.570
 4001WAT      O12404   7.600   0.707   4.893
 4001WAT     H112405   7.552   0.649   4.952
 4001WAT     H212406   7.582   0.795   4.926
 4002WAT      O12407   3.656   6.814   1.047
 4002WAT     H112408   3.731   6.841   0.994
 4002WAT     H212409   3.594   6.777   0.985
 4003WAT      O12410   4.634   5.524   3.717
 4003WAT     H112411   4.615   5.484   3.632
 4003WAT     H212412   4.548   5.552   3.750
 4004WAT      O12413   4.712   0.595   5.024
 4004WAT     H112414   4.756   0.515   4.994
 4004WAT     H212415   4.621   0.584   4.997
 4005WAT      O12416   5.593   3.273   2.655
 4005WAT     H112417   5.656   3.338   2.687
 4005WAT     H212418   5.576   3.218   2.731
 4006WAT      O12419   3.817   5.534   2.708
 4006WAT     H112420   3.815   5.555   2.615
 4006WAT     H212421   3.737   5.483   2.723
 4007WAT      O12422   2.845   2.272   4.952
 4007WAT     H112423   2.806   2.266   5.039
 4007WAT     H212424   2.936   2.243   4.964
 4008WAT      O12425   1.754   2.171   3.617
 4008WAT     H112426   1.763   2.077   3.607
 4008WAT     H212427   1.842   2.205   3.601
 4009WAT      O12428   1.668   0.228   2.700
 4009WAT     H112429   1.622   0.176   2.634
 4009WAT     H212430   1.739   0.271   2.653
 4010WAT      O12431   5.322   5.418   3.062
 4010WAT     H112432   5.294   5.327   3.070
 4010WAT     H212433   5.398   5.425   3.120
 4011WAT      O12434   6.421   4.324   0.175
 4011WAT     H112435   6.378   4.246   0.141
 4011WAT     H212436   6.514   4.307   0.163
 4012WAT      O12437   0.314   2.830   1.795
 4012WAT     H112438   0.257   2.901   1.821
 4012WAT     H212439   0.403   2.861   1.814
 4013WAT      O12440   1.123   5.863   3.019
 4013WAT     H112441   1.036   5.855   2.979
 4013WAT     H212442   1.170   5.924   2.961
 4014WAT      O12443   3.702   0.379   6.194
 4014WAT     H112444   3.736   0.296   6.160
 4014WAT     H212445   3.695   0.366   6.288
 4015WAT      O12446   0.730   4.345   5.601
 4015WAT     H112447   0.663   4.305   5.546
 4015WAT     H212448   0.813   4.318   5.562
 4016WAT      O12449   5.775   6.243   4.622
 4016WAT     H112450   5.762   6.161   4.575
 4016WAT     H212451   5.758   6.311   4.557
 4017WAT      O12452   2.491   2.343   1.584
 4017WAT     H112453   2.417   2.285   1.565
 4017WAT     H212454   2.564   2.283   1.600
 4018WAT      O12455   7.435   5.920   4.943
 4018WAT     H112456   7.389   6.004   4.949
 4018WAT     H212457   7.387   5.863   5.003
 4019WAT      O12458   7.264   1.468   3.644
 4019WAT     H112459   7.272   1.374   3.657
 4019WAT     H212460   7.278   1.505   3.731
 4020WAT      O12461   1.429   3.162   2.559
 4020WAT     H112462   1.403   3.098   2.493
 4020WAT     H212463   1.362   3.231   2.553
 4021WAT      O12464   6.390   3.687   1.853
 4021WAT     H112465   6.295   3.678   1.860
 4021WAT     H212466   6.414   3.634   1.777
 4022WAT      O12467   7.356   6.821   2.740
 4022WAT     H112468   7.388   6.803   2.651
 4022WAT     H212469   7.423   6.879   2.777
 4023WAT      O12470   1.068   3.630   4.379
 4023WAT     H112471   1.012   3.563   4.340
 4023WAT     H212472   1.097   3.684   4.306
 4024WAT      O12473   1.970   5.514   5.808
 4024WAT     H112474   1.941   5.488   5.896
 4024WAT     H212475   2.005   5.434   5.770
 4025WAT      O12476   0.194   1.449   3.282
 4025WAT     H112477   0.251   1.421   3.211
 4025WAT     H212478   0.119   1.489   3.238
 4026WAT      O12479   6.601   6.563   0.560
 4026WAT     H112480   6.576   6.609   0.479
 4026WAT     H212481   6.518   6.536   0.599
 4027WAT      O12482   0.158   5.985   1.930
 4027WAT     H112483   0.078   6.001   1.879
 4027WAT     H212484   0.212   6.063   1.915
 4028WAT      O12485   6.544   3.120   4.917
 4028WAT     H112486   6.501   3.078   4.843
 4028WAT     H212487   6.479   3.183   4.950
 4029WAT      O12488   1.238   0.627   4.886
 4029WAT     H112489   1.281   0.648   4.803
 4029WAT     H212490   1.206   0.711   4.918
 4030WAT      O12491   2.375   0.023   5.917
 4030WAT     H112492   2.444  -0.004   5.856
 4030WAT     H212493   2.397  -0.020   5.999
 4031WAT      O12494   7.055   6.397   3.454
 4031WAT     H112495   7.010   6.400   3.538
 4031WAT     H212496   6.986   6.381   3.390
 4032WAT      O12497   5.115   1.584   4.334
 4032WAT     H112498   5.100   1.614   4.244
 4032WAT     H212499   5.033   1.541   4.359
 4033WAT      O12500   1.592   3.010   2.100
 4033WAT     H112501   1.643   3.088   2.122
 4033WAT     H212502   1.655   2.938   2.101
 4034WAT      O12503   0.169   4.075   2.017
 4034WAT     H112504   0.132   3.987   2.004
 4034WAT     H212505   0.105   4.134   1.978
 4035WAT      O12506   7.180   4.016   2.402
 4035WAT     H112507   7.155   3.947   2.463
 4035WAT     H212508   7.237   3.972   2.339
 4036WAT      O12509   3.264   1.727   5.912
 4036WAT     H112510   3.312   1.655   5.871
 4036WAT     H212511   3.172   1.707   5.896
 4037WAT      O12512   5.000   5.417   1.517
 4037WAT     H112513   4.950   5.388   1.440
 4037WAT     H212514   5.089   5.431   1.484
 4038WAT      O12515   1.557   1.990   6.081
 4038WAT     H112516   1.510   1.908   6.065
 4038WAT     H212517   1.544   2.041   6.001
 4039WAT      O12518   3.977   2.555   4.740
 4039WAT     H112519   3.949   2.646   4.751
 4039WAT     H212520   4.031   2.537   4.817
 4040WAT      O12521   5.093   5.472   5.857
 4040WAT     H112522   5.091   5.489   5.762
 4040WAT     H212523   5.148   5.542   5.892
 4041WAT      O12524   5.144   0.526   5.862
 4041WAT     H112525   5.171   0.617   5.875
 4041WAT     H212526   5.116   0.497   5.949
 4042WAT      O12527   5.795   1.609   1.342
 4042WAT     H112528   5.707   1.640   1.318
 4042WAT     H212529   5.822   1.553   1.269
 4043WAT      O12530   1.502   6.654   0.975
 4043WAT     H112531   1.506   6.566   1.014
 4043WAT     H212532   1.422   6.653   0.922
 4044WAT      O12533   6.221   5.288   1.599
 4044WAT     H112534   6.176   5.259   1.520
 4044WAT     H212535   6.249   5.377   1.579
 4045WAT      O12536   3.495   2.829   1.278
 4045WAT     H112537   3.565   2.893   1.268
 4045WAT     H212538   3.414   2.881   1.270
 4046WAT      O12539   5.319   0.159   0.129
 4046WAT     H112540   5.391   0.195   0.078
 4046WAT     H212541   5.252   0.137   0.064
 4047WAT      O12542   4.087   5.594   2.732
 4047WAT     H112543   4.002   5.550   2.733
 4047WAT     H212544   4.066   5.686   2.721
 4048WAT      O12545   3.041   3.993   2.368
 4048WAT     H112546   3.103   4.025   2.303
 4048WAT     H212547   3.069   4.032   2.451
 4049WAT      O12548   2.163   5.781   4.859
 4049WAT     H112549   2.239   5.833   4.883
 4049WAT     H212550   2.165   5.778   4.763
 4050WAT      O12551   3.967   6.437   6.126
 4050WAT     H112552   3.967   6.356   6.076
 4050WAT     H212553   4.053   6.476   6.111
 4051WAT      O12554   3.194   7.131   0.018
 4051WAT     H112555   3.204   7.063   0.085
 4051WAT     H212556   3.170   7.083  -0.061
 4052WAT      O12557   7.186   4.393   3.954
 4052WAT     H112558   7.270   4.371   3.915
 4052WAT     H212559   7.123   4.385   3.883
 4053WAT      O12560   4.679   5.083   0.801
 4053WAT     H112561   4.754   5.066   0.744
 4053WAT     H212562   4.674   5.178   0.806
 4054WAT      O12563   4.467   1.962   6.168
 4054WAT     H112564   4.477   2.006   6.083
 4054WAT     H212565   4.549   1.913   6.179
 4055WAT      O12566   2.695   5.859   1.009
 4055WAT     H112567   2.747   5.822   1.079
 4055WAT     H212568   2.684   5.788   0.946
 4056WAT      O12569   1.841   4.506   0.155
 4056WAT     H112570   1.879   4.422   0.180
 4056WAT     H212571   1.897   4.537   0.084
 4057WAT      O12572   4.491   7.069   6.204
 4057WAT     H112573   4.464   7.159   6.225
 4057WAT     H212574   4.415   7.032   6.159
 4058WAT      O12575   5.482   3.558   2.630
 4058WAT     H112576   5.472   3.553   2.535
 4058WAT     H212577   5.429   3.485   2.663
 4059WAT      O12578   2.870   6.457   1.748
 4059WAT     H112579   2.944   6.483   1.693
 4059WAT     H212580   2.810   6.412   1.689
 4060WAT      O12581   7.421   0.196   1.754
 4060WAT     H112582   7.346   0.227   1.704
 4060WAT     H212583   7.491   0.186   1.690
 4061WAT      O12584   5.401   2.568   2.053
 4061WAT     H112585   5.425   2.603   1.967
 4061WAT     H212586   5.369   2.480   2.035
 4062WAT      O12587   5.521   1.818   3.652
 4062WAT     H112588   5.610   1.784   3.644
 4062WAT     H212589   5.468   1.741   3.674
 4063WAT      O12590   4.224   1.533   2.427
 4063WAT     H112591   4.256   1.474   2.359
 4063WAT     H212592   4.139   1.564   2.395
 4064WAT      O12593   4.851   6.275   5.192
 4064WAT     H112594   4.792   6.350   5.190
 4064WAT     H212595   4.877   6.262   5.101
 4065WAT      O12596   1.769   6.252   4.002
 4065WAT     H112597   1.827   6.193   3.955
 4065WAT     H212598   1.686   6.248   3.954
 4066WAT      O12599   6.018   2.904   4.109
 4066WAT     H112600   6.020   2.967   4.181
 4066WAT     H212601   6.107   2.868   4.107
 4067WAT      O12602   6.745   3.286   4.850
 4067WAT     H112603   6.663   3.248   4.882
 4067WAT     H212604   6.773   3.228   4.779
 4068WAT      O12605   1.984   4.833   1.355
 4068WAT     H112606   2.021   4.917   1.383
 4068WAT     H212607   1.899   4.856   1.318
 4069WAT      O12608   4.003   0.530   1.813
 4069WAT     H112609   3.921   0.570   1.842
 4069WAT     H212610   4.013   0.561   1.723
 4070WAT      O12611   7.420   3.670   4.856
 4070WAT     H112612   7.347   3.617   4.888
 4070WAT     H212613   7.488   3.662   4.923
 4071WAT      O12614   5.607   2.204   2.717
 4071WAT     H112615   5.682   2.219   2.775
 4071WAT     H212616   5.632   2.128   2.665
 4072WAT      O12617   2.427   6.351   3.971
 4072WAT     H112618   2.495   6.371   3.906
 4072WAT     H212619   2.429   6.256   3.978
 4073WAT      O12620   4.715   6.734   1.921
 4073WAT     H112621   4.627   6.709   1.948
 4073WAT     H212622   4.703   6.782   1.840
 4074WAT      O12623   0.603   7.002   1.290
 4074WAT     H112624   0.664   7.005   1.216
 4074WAT     H212625   0.646   7.052   1.359
 4075WAT      O12626   6.126   2.183   1.452
 4075WAT     H112627   6.066   2.163   1.381
 4075WAT     H212628   6.107   2.118   1.519
 4076WAT      O12629   1.677   5.296   4.875
 4076WAT     H112630   1.612   5.232   4.903
 4076WAT     H212631   1.674   5.293   4.779
 4077WAT      O12632   1.032   4.331   2.517
 4077WAT     H112633   0.955   4.275   2.520
 4077WAT     H212634   1.093   4.290   2.579
 4078WAT      O12635   0.830   6.283   3.435
 4078WAT     H112636   0.743   6.316   3.411
 4078WAT     H212637   0.820   6.188   3.436
 4079WAT      O12638   7.289   2.637   0.442
 4079WAT     H112639   7.314   2.669   0.355
 4079WAT     H212640   7.341   2.558   0.454
 4080WAT      O12641   5.850   1.595   4.442
 4080WAT     H112642   5.757   1.616   4.451
 4080WAT     H212643   5.867   1.599   4.348
 4081WAT      O12644   0.757   2.420   3.772
 4081WAT     H112645   0.742   2.398   3.680
 4081WAT     H212646   0.690   2.487   3.791
 4082WAT      O12647   0.759   5.385   1.102
 4082WAT     H112648   0.775   5.376   1.008
 4082WAT     H212649   0.686   5.325   1.120
 4083WAT      O12650   6.473   6.774   5.099
 4083WAT     H112651   6.384   6.771   5.134
 4083WAT     H212652   6.465   6.739   5.010
 4084WAT      O12653   5.081   6.627   2.507
 4084WAT     H112654   5.086   6.604   2.414
 4084WAT     H212655   5.158   6.586   2.546
 4085WAT      O12656   0.107   2.773   3.432
 4085WAT     H112657   0.135   2.804   3.346
 4085WAT     H212658   0.062   2.690   3.415
 4086WAT      O12659   0.775   0.194   3.748
 4086WAT     H112660   0.868   0.179   3.729
 4086WAT     H212661   0.747   0.116   3.796
 4087WAT      O12662   5.802   0.912   2.256
 4087WAT     H112663   5.815   0.963   2.336
 4087WAT     H212664   5.829   0.971   2.186
 4088WAT      O12665   1.962   5.638   5.018
 4088WAT     H112666   2.029   5.669   4.957
 4088WAT     H212667   1.918   5.718   5.048
 4089WAT      O12668   4.036   1.078   0.304
 4089WAT     H112669   4.049   1.115   0.217
 4089WAT     H212670   3.941   1.073   0.314
 4090WAT      O12671   5.652   4.767   2.440
 4090WAT     H112672   5.656   4.847   2.387
 4090WAT     H212673   5.570   4.726   2.416
 4091WAT      O12674   6.835   3.605   3.012
 4091WAT     H112675   6.749   3.646   3.003
 4091WAT     H212676   6.897   3.676   2.997
 4092WAT      O12677   6.090   3.386   1.826
 4092WAT     H112678   6.098   3.299   1.787
 4092WAT     H212679   6.181   3.416   1.835
 4093WAT      O12680   2.160   3.848   5.016
 4093WAT     H112681   2.080   3.894   4.989
 4093WAT     H212682   2.229   3.884   4.961
 4094WAT      O12683   7.262   6.512   5.898
 4094WAT     H112684   7.347   6.475   5.876
 4094WAT     H212685   7.199   6.445   5.873
 4095WAT      O12686   3.085   4.778   4.162
 4095WAT     H112687   3.150   4.756   4.096
 4095WAT     H212688   3.001   4.754   4.122
 4096WAT      O12689   4.969   5.996   2.958
 4096WAT     H112690   5.036   5.957   2.902
 4096WAT     H212691   4.887   5.959   2.927
 4097WAT      O12692   6.891   2.026   2.556
 4097WAT     H112693   6.849   2.103   2.596
 4097WAT     H212694   6.818   1.970   2.531
 4098WAT      O12695   5.125   2.076   6.054
 4098WAT     H112696   5.115   2.156   6.106
 4098WAT     H212697   5.178   2.103   5.979
 4099WAT      O12698   4.730   6.640   3.679
 4099WAT     H112699   4.663   6.584   3.639
 4099WAT     H212700   4.788   6.579   3.724
 4100WAT      O12701   5.280   3.135   1.934
 4100WAT     H112702   5.348   3.201   1.921
 4100WAT     H212703   5.259   3.140   2.028
 4101WAT      O12704   2.803   1.512   3.226
 4101WAT     H112705   2.774   1.588   3.176
 4101WAT     H212706   2.854   1.549   3.298
 4102WAT      O12707   7.616   0.721   2.517
 4102WAT     H112708   7.571   0.805   2.516
 4102WAT     H212709   7.563   0.665   2.461
 4103WAT      O12710   3.471   2.171   4.311
 4103WAT     H112711   3.533   2.243   4.322
 4103WAT     H212712   3.483   2.144   4.220
 4104WAT      O12713   6.999   7.186   2.951
 4104WAT     H112714   7.061   7.258   2.934
 4104WAT     H212715   6.992   7.141   2.867
 4105WAT      O12716   0.525   7.196   4.190
 4105WAT     H112717   0.575   7.262   4.142
 4105WAT     H212718   0.523   7.120   4.132
 4106WAT      O12719   3.977   2.656   5.676
 4106WAT     H112720   3.942   2.734   5.633
 4106WAT     H212721   3.978   2.679   5.769
 4107WAT      O12722   5.628   2.640   1.666
 4107WAT     H112723   5.543   2.600   1.648
 4107WAT     H212724   5.618   2.731   1.640
 4108WAT      O12725   1.772   5.335   1.217
 4108WAT     H112726   1.714   5.405   1.186
 4108WAT     H212727   1.792   5.360   1.308
 4109WAT      O12728   6.247   3.473   1.023
 4109WAT     H112729   6.303   3.550   1.025
 4109WAT     H212730   6.223   3.464   0.931
 4110WAT      O12731   5.157   3.887   6.175
 4110WAT     H112732   5.121   3.860   6.091
 4110WAT     H212733   5.188   3.805   6.215
 4111WAT      O12734   3.694   4.467   4.702
 4111WAT     H112735   3.767   4.416   4.667
 4111WAT     H212736   3.638   4.403   4.746
 4112WAT      O12737   4.752   2.261   1.164
 4112WAT     H112738   4.796   2.306   1.236
 4112WAT     H212739   4.818   2.200   1.130
 4113WAT      O12740   3.124   3.463   1.315
 4113WAT     H112741   3.130   3.460   1.220
 4113WAT     H212742   3.155   3.551   1.338
 4114WAT      O12743   3.939   5.532   6.028
 4114WAT     H112744   3.870   5.573   5.976
 4114WAT     H212745   3.931   5.573   6.114
 4115WAT      O12746   1.906   3.197   4.801
 4115WAT     H112747   1.910   3.257   4.875
 4115WAT     H212748   1.857   3.121   4.834
 4116WAT      O12749   1.988   6.312   0.142
 4116WAT     H112750   2.001   6.253   0.216
 4116WAT     H212751   1.893   6.316   0.131
 4117WAT      O12752   2.858   1.492   6.080
 4117WAT     H112753   2.767   1.464   6.072
 4117WAT     H212754   2.889   1.447   6.158
 4118WAT      O12755   6.627   1.870   1.057
 4118WAT     H112756   6.587   1.803   1.001
 4118WAT     H212757   6.606   1.953   1.012
 4119WAT      O12758   2.403   3.491   0.077
 4119WAT     H112759   2.439   3.491   0.165
 4119WAT     H212760   2.330   3.553   0.080
 4120WAT      O12761   2.837   1.557   1.011
 4120WAT     H112762   2.836   1.605   0.927
 4120WAT     H212763   2.758   1.504   1.010
 4121WAT      O12764   0.097   2.468   4.474
 4121WAT     H112765   0.177   2.518   4.491
 4121WAT     H212766   0.128   2.382   4.447
 4122WAT      O12767   2.336   0.878   6.208
 4122WAT     H112768   2.292   0.944   6.154
 4122WAT     H212769   2.351   0.921   6.292
 4123WAT      O12770   2.738   0.157   3.147
 4123WAT     H112771   2.782   0.077   3.120
 4123WAT     H212772   2.751   0.161   3.242
 4124WAT      O12773   5.319   3.175   4.628
 4124WAT     H112774   5.236   3.141   4.593
 4124WAT     H212775   5.362   3.215   4.553
 4125WAT      O12776   1.877   4.557   3.455
 4125WAT     H112777   1.782   4.574   3.459
 4125WAT     H212778   1.902   4.539   3.546
 4126WAT      O12779   3.866   1.009   1.739
 4126WAT     H112780   3.809   0.980   1.667
 4126WAT     H212781   3.911   1.086   1.703
 4127WAT      O12782   3.223   4.072   0.111
 4127WAT     H112783   3.151   4.020   0.074
 4127WAT     H212784   3.297   4.012   0.110
 4128WAT      O12785   2.374   0.254   0.229
 4128WAT     H112786   2.301   0.272   0.289
 4128WAT     H212787   2.439   0.209   0.282
 4129WAT      O12788   2.104   1.928   5.512
 4129WAT     H112789   2.071   1.955   5.427
 4129WAT     H212790   2.038   1.959   5.575
 4130WAT      O12791   6.941   6.059   5.800
 4130WAT     H112792   6.920   5.984   5.744
 4130WAT     H212793   6.984   6.021   5.876
 4131WAT      O12794   5.736   6.328   4.874
 4131WAT     H112795   5.725   6.300   4.783
 4131WAT     H212796   5.647   6.337   4.908
 4132WAT      O12797   5.461   5.453   0.744
 4132WAT     H112798   5.413   5.375   0.716
 4132WAT     H212799   5.417   5.526   0.700
 4133WAT      O12800   5.941   0.130   0.528
 4133WAT     H112801   5.908   0.062   0.470
 4133WAT     H212802   5.897   0.210   0.499
 4134WAT      O12803   0.646   3.222   4.628
 4134WAT     H112804   0.588   3.237   4.554
 4134WAT     H212805   0.597   3.255   4.704
 4135WAT      O12806   1.097   7.056   5.347
 4135WAT     H112807   1.061   6.998   5.414
 4135WAT     H212808   1.038   7.047   5.273
 4136WAT      O12809   4.596   5.586   0.099
 4136WAT     H112810   4.686   5.619   0.098
 4136WAT     H212811   4.604   5.497   0.064
 4137WAT      O12812   1.756   7.169   6.044
 4137WAT     H112813   1.827   7.227   6.072
 4137WAT     H212814   1.697   7.166   6.119
 4138WAT      O12815   5.674   2.319   1.272
 4138WAT     H112816   5.728   2.392   1.239
 4138WAT     H212817   5.734   2.269   1.327
 4139WAT      O12818   1.099   1.268   5.855
 4139WAT     H112819   1.033   1.270   5.924
 4139WAT     H212820   1.181   1.289   5.900
 4140WAT      O12821   7.184   0.679   1.553
 4140WAT     H112822   7.254   0.628   1.594
 4140WAT     H212823   7.221   0.710   1.471
 4141WAT      O12824   6.258   4.609   1.311
 4141WAT     H112825   6.320   4.630   1.242
 4141WAT     H212826   6.247   4.691   1.360
 4142WAT      O12827   3.342   0.152   1.485
 4142WAT     H112828   3.327   0.140   1.579
 4142WAT     H212829   3.424   0.105   1.468
 4143WAT      O12830   3.482   0.815   3.295
 4143WAT     H112831   3.432   0.760   3.234
 4143WAT     H212832   3.425   0.890   3.312
 4144WAT      O12833   6.134   6.917   5.563
 4144WAT     H112834   6.181   6.996   5.588
 4144WAT     H212835   6.043   6.945   5.554
 4145WAT      O12836   0.410   1.242   1.222
 4145WAT     H112837   0.332   1.189   1.236
 4145WAT     H212838   0.378   1.323   1.183
 4146WAT      O12839   3.089   3.146   0.293
 4146WAT     H112840   3.104   3.195   0.212
 4146WAT     H212841   3.097   3.054   0.268
 4147WAT      O12842   7.591   0.353   4.911
 4147WAT     H112843   7.576   0.259   4.908
 4147WAT     H212844   7.615   0.377   4.822
 4148WAT      O12845   3.132   3.129   2.306
 4148WAT     H112846   3.183   3.196   2.260
 4148WAT     H212847   3.160   3.136   2.397
 4149WAT      O12848   6.000   6.523   2.816
 4149WAT     H112849   6.043   6.513   2.731
 4149WAT     H212850   5.909   6.546   2.795
 4150WAT      O12851   4.887   4.794   0.194
 4150WAT     H112852   4.920   4.714   0.154
 4150WAT     H212853   4.941   4.864   0.156
 4151WAT      O12854   3.336   2.223   4.748
 4151WAT     H112855   3.374   2.149   4.701
 4151WAT     H212856   3.245   2.227   4.717
 4152WAT      O12857   1.556   2.446   2.170
 4152WAT     H112858   1.475   2.413   2.132
 4152WAT     H212859   1.535   2.536   2.195
 4153WAT      O12860   4.406   5.696   5.550
 4153WAT     H112861   4.458   5.619   5.526
 4153WAT     H212862   4.404   5.748   5.470
 4154WAT      O12863   4.835   0.975   1.277
 4154WAT     H112864   4.816   1.068   1.260
 4154WAT     H212865   4.888   0.976   1.357
 4155WAT      O12866   4.737   5.657   2.506
 4155WAT     H112867   4.686   5.722   2.459
 4155WAT     H212868   4.755   5.589   2.441
 4156WAT      O12869   1.576   5.635   0.179
 4156WAT     H112870   1.494   5.674   0.209
 4156WAT     H212871   1.596   5.682   0.097
 4157WAT      O12872   4.445   5.782   2.845
 4157WAT     H112873   4.386   5.740   2.908
 4157WAT     H212874   4.387   5.834   2.789
 4158WAT      O12875   3.015   6.756   3.333
 4158WAT     H112876   2.972   6.772   3.250
 4158WAT     H212877   3.093   6.705   3.311
 4159WAT      O12878   1.367   1.127   3.441
 4159WAT     H112879   1.458   1.099   3.440
 4159WAT     H212880   1.317   1.046   3.454
 4160WAT      O12881   1.695   5.567   1.571
 4160WAT     H112882   1.656   5.566   1.658
 4160WAT     H212883   1.657   5.491   1.527
 4161WAT      O12884   7.609   5.213   4.673
 4161WAT     H112885   7.565   5.156   4.736
 4161WAT     H212886   7.541   5.235   4.609
 4162WAT      O12887   0.970   2.045   4.803
 4162WAT     H112888   0.932   1.997   4.877
 4162WAT     H212889   1.000   2.128   4.841
 4163WAT      O12890   5.963   6.851   5.916
 4163WAT     H112891   6.021   6.820   5.847
 4163WAT     H212892   5.900   6.780   5.929
 4164WAT      O12893   2.181   3.163   5.057
 4164WAT     H112894   2.132   3.205   4.986
 4164WAT     H212895   2.196   3.074   5.027
 4165WAT      O12896   5.212   3.027   5.904
 4165WAT     H112897   5.249   2.994   5.822
 4165WAT     H212898   5.119   3.005   5.898
 4166WAT      O12899   0.303   0.039   3.851
 4166WAT     H112900   0.389   0.051   3.811
 4166WAT     H212901   0.271   0.128   3.866
 4167WAT      O12902   2.038   6.816   5.846
 4167WAT     H112903   2.002   6.905   5.836
 4167WAT     H212904   2.012   6.771   5.766
 4168WAT      O12905   4.163   4.032   1.291
 4168WAT     H112906   4.212   4.056   1.369
 4168WAT     H212907   4.212   4.072   1.219
 4169WAT      O12908   2.383   1.952   4.929
 4169WAT     H112909   2.374   2.028   4.872
 4169WAT     H212910   2.368   1.877   4.871
 4170WAT      O12911   1.932   5.890   2.620
 4170WAT     H112912   1.875   5.813   2.612
 4170WAT     H212913   1.917   5.939   2.539
 4171WAT      O12914   5.245   0.429   1.359
 4171WAT     H112915   5.194   0.461   1.285
 4171WAT     H212916   5.295   0.355   1.324
 4172WAT      O12917   2.669   5.477   5.489
 4172WAT     H112918   2.672   5.501   5.397
 4172WAT     H212919   2.657   5.382   5.489
 4173WAT      O12920   7.494   1.516   1.727
 4173WAT     H112921   7.558   1.461   1.771
 4173WAT     H212922   7.411   1.470   1.739
 4174WAT      O12923   6.580   3.876   0.274
 4174WAT     H112924   6.512   3.932   0.312
 4174WAT     H212925   6.567   3.885   0.179
 4175WAT      O12926   6.741   0.192   2.682
 4175WAT     H112927   6.786   0.208   2.765
 4175WAT     H212928   6.793   0.240   2.617
 4176WAT      O12929   1.701   4.786   0.767
 4176WAT     H112930   1.647   4.744   0.833
 4176WAT     H212931   1.774   4.823   0.816
 4177WAT      O12932   3.427   6.093   2.087
 4177WAT     H112933   3.387   6.101   2.000
 4177WAT     H212934   3.391   6.011   2.122
 4178WAT      O12935   0.273   3.902   1.640
 4178WAT     H112936   0.278   3.977   1.580
 4178WAT     H212937   0.355   3.855   1.626
 4179WAT      O12938   5.700   5.543   0.807
 4179WAT     H112939   5.618   5.501   0.781
 4179WAT     H212940   5.764   5.471   0.808
 4180WAT      O12941   6.869   6.526   1.992
 4180WAT     H112942   6.853   6.502   2.083
 4180WAT     H212943   6.798   6.485   1.943
 4181WAT      O12944   5.529   4.517   3.554
 4181WAT     H112945   5.539   4.561   3.470
 4181WAT     H212946   5.619   4.499   3.583
 4182WAT      O12947   6.976   5.028   1.467
 4182WAT     H112948   7.017   5.074   1.540
 4182WAT     H212949   6.883   5.022   1.492
 4183WAT      O12950   5.098   3.972   3.993
 4183WAT     H112951   5.025   3.917   3.964
 4183WAT     H212952   5.169   3.952   3.931
 4184WAT      O12953   4.080   5.629   4.756
 4184WAT     H112954   4.114   5.552   4.711
 4184WAT     H212955   4.102   5.615   4.848
 4185WAT      O12956   1.670   1.625   2.242
 4185WAT     H112957   1.737   1.693   2.237
 4185WAT     H212958   1.678   1.577   2.159
 4186WAT      O12959   1.225   4.374   1.701
 4186WAT     H112960   1.276   4.384   1.781
 4186WAT     H212961   1.254   4.446   1.645
 4187WAT      O12962   4.565   0.384   1.464
 4187WAT     H112963   4.638   0.379   1.403
 4187WAT     H212964   4.590   0.453   1.526
 4188WAT      O12965   1.179   1.927   5.747
 4188WAT     H112966   1.151   1.952   5.659
 4188WAT     H212967   1.237   1.852   5.734
 4189WAT      O12968   5.120   4.039   1.108
 4189WAT     H112969   5.193   4.091   1.073
 4189WAT     H212970   5.080   3.999   1.031
 4190WAT      O12971   5.907   2.976   1.715
 4190WAT     H112972   5.820   2.937   1.727
 4190WAT     H212973   5.962   2.904   1.685
 4191WAT      O12974   1.591   6.469   3.271
 4191WAT     H112975   1.518   6.529   3.260
 4191WAT     H212976   1.618   6.447   3.182
 4192WAT      O12977   1.013   4.807   5.322
 4192WAT     H112978   0.973   4.824   5.408
 4192WAT     H212979   1.047   4.718   5.330
 4193WAT      O12980   7.087   2.106   0.294
 4193WAT     H112981   7.039   2.185   0.318
 4193WAT     H212982   7.044   2.074   0.215
 4194WAT      O12983   7.236   3.563   2.318
 4194WAT     H112984   7.169   3.630   2.303
 4194WAT     H212985   7.305   3.609   2.366
 4195WAT      O12986   2.742   0.429   3.141
 4195WAT     H112987   2.720   0.456   3.052
 4195WAT     H212988   2.756   0.335   3.135
 4196WAT      O12989   3.039   5.197   4.388
 4196WAT     H112990   3.036   5.277   4.336
 4196WAT     H212991   3.100   5.140   4.342
 4197WAT      O12992   4.723   3.738   1.880
 4197WAT     H112993   4.701   3.675   1.949
 4197WAT     H212994   4.736   3.685   1.801
 4198WAT      O12995   2.852   3.505   1.637
 4198WAT     H112996   2.805   3.565   1.578
 4198WAT     H212997   2.806   3.422   1.628
 4199WAT      O12998   3.415   2.726   0.895
 4199WAT     H112999   3.444   2.688   0.978
 4199WAT     H213000   3.384   2.652   0.843
 4200WAT      O13001   1.152   2.580   2.995
 4200WAT     H113002   1.057   2.580   3.006
 4200WAT     H213003   1.165   2.588   2.900
 4201WAT      O13004   6.636   1.943   4.905
 4201WAT     H113005   6.614   1.877   4.838
 4201WAT     H213006   6.654   2.023   4.855
 4202WAT      O13007   0.799   1.887   1.819
 4202WAT     H113008   0.757   1.806   1.850
 4202WAT     H213009   0.859   1.858   1.750
 4203WAT      O13010   0.029   0.346   4.031
 4203WAT     H113011  -0.038   0.397   4.075
 4203WAT     H213012   0.037   0.266   4.083
 4204WAT      O13013   4.047   5.640   3.673
 4204WAT     H113014   3.997   5.697   3.615
 4204WAT     H213015   4.086   5.699   3.737
 4205WAT      O13016   0.224   0.461   5.304
 4205WAT     H113017   0.283   0.419   5.241
 4205WAT     H213018   0.168   0.390   5.335
 4206WAT      O13019   6.448   0.120   1.650
 4206WAT     H113020   6.387   0.048   1.639
 4206WAT     H213021   6.395   0.199   1.638
 4207WAT      O13022   2.610   3.083   5.967
 4207WAT     H113023   2.535   3.126   6.007
 4207WAT     H213024   2.618   2.999   6.013
 4208WAT      O13025   3.745   4.269   0.300
 4208WAT     H113026   3.817   4.320   0.263
 4208WAT     H213027   3.773   4.250   0.389
 4209WAT      O13028   0.413   4.772   4.192
 4209WAT     H113029   0.468   4.727   4.255
 4209WAT     H213030   0.337   4.802   4.242
 4210WAT      O13031   7.606   6.545   2.337
 4210WAT     H113032   7.591   6.452   2.356
 4210WAT     H213033   7.640   6.545   2.248
 4211WAT      O13034   0.348   1.404   0.730
 4211WAT     H113035   0.359   1.310   0.717
 4211WAT     H213036   0.407   1.444   0.666
 4212WAT      O13037   1.644   4.401   4.071
 4212WAT     H113038   1.618   4.316   4.038
 4212WAT     H213039   1.579   4.423   4.138
 4213WAT      O13040   5.504   3.232   1.240
 4213WAT     H113041   5.455   3.281   1.306
 4213WAT     H213042   5.507   3.291   1.164
 4214WAT      O13043   0.784   4.022   2.278
 4214WAT     H113044   0.812   3.950   2.334
 4214WAT     H213045   0.863   4.074   2.265
 4215WAT      O13046   7.273   0.022   5.557
 4215WAT     H113047   7.246  -0.020   5.475
 4215WAT     H213048   7.198   0.075   5.582
 4216WAT      O13049   6.138   1.714   1.000
 4216WAT     H113050   6.049   1.749   1.006
 4216WAT     H213051   6.138   1.638   1.058
 4217WAT      O13052   3.657   5.014   2.740
 4217WAT     H113053   3.568   5.032   2.770
 4217WAT     H213054   3.646   4.972   2.655
 4218WAT      O13055   3.414   6.114   5.439
 4218WAT     H113056   3.434   6.021   5.431
 4218WAT     H213057   3.397   6.143   5.349
 4219WAT      O13058   3.307   7.033   2.434
 4219WAT     H113059   3.291   7.101   2.369
 4219WAT     H213060   3.272   7.070   2.516
 4220WAT      O13061   4.120   1.323   3.772
 4220WAT     H113062   4.210   1.339   3.800
 4220WAT     H213063   4.129   1.281   3.687
 4221WAT      O13064   1.065   2.333   2.165
 4221WAT     H113065   1.025   2.408   2.120
 4221WAT     H213066   1.079   2.269   2.095
 4222WAT      O13067   3.893   3.708   4.872
 4222WAT     H113068   3.890   3.794   4.916
 4222WAT     H213069   3.801   3.687   4.856
 4223WAT      O13070   0.040   1.193   2.574
 4223WAT     H113071  -0.048   1.157   2.584
 4223WAT     H213072   0.094   1.118   2.548
 4224WAT      O13073   7.013   5.561   5.822
 4224WAT     H113074   7.064   5.620   5.766
 4224WAT     H213075   7.079   5.522   5.880
 4225WAT      O13076   6.127   0.402   4.596
 4225WAT     H113077   6.205   0.415   4.542
 4225WAT     H213078   6.068   0.473   4.569
 4226WAT      O13079   6.031   5.308   4.873
 4226WAT     H113080   6.076   5.386   4.841
 4226WAT     H213081   5.945   5.340   4.902
 4227WAT      O13082   4.613   1.810   1.280
 4227WAT     H113083   4.582   1.825   1.191
 4227WAT     H213084   4.577   1.883   1.331
 4228WAT      O13085   4.870   0.575   0.920
 4228WAT     H113086   4.786   0.532   0.932
 4228WAT     H213087   4.866   0.613   0.832
 4229WAT      O13088   3.420   4.452   0.826
 4229WAT     H113089   3.435   4.423   0.736
 4229WAT     H213090   3.507   4.458   0.864
 4230WAT      O13091   0.335   1.009   3.056
 4230WAT     H113092   0.404   1.044   3.113
 4230WAT     H213093   0.254   1.045   3.090
 4231WAT      O13094   3.401   0.917   0.006
 4231WAT     H113095   3.340   0.907  -0.067
 4231WAT     H213096   3.372   0.996   0.051
 4232WAT      O13097   0.537   6.862   1.536
 4232WAT     H113098   0.568   6.877   1.447
 4232WAT     H213099   0.598   6.798   1.573
 4233WAT      O13100   0.277   0.107   2.756
 4233WAT     H113101   0.257   0.091   2.663
 4233WAT     H213102   0.226   0.041   2.803
 4234WAT      O13103   6.769   4.460   5.197
 4234WAT     H113104   6.729   4.406   5.128
 4234WAT     H213105   6.849   4.413   5.220
 4235WAT      O13106   1.073   6.510   4.161
 4235WAT     H113107   1.040   6.440   4.104
 4235WAT     H213108   1.137   6.467   4.217
 4236WAT      O13109   3.372   2.226   0.986
 4236WAT     H113110   3.307   2.181   0.932
 4236WAT     H213111   3.375   2.315   0.949
 4237WAT      O13112   6.635   1.075   0.008
 4237WAT     H113113   6.576   1.004   0.033
 4237WAT     H213114   6.722   1.037   0.010
 4238WAT      O13115   5.329   0.297   5.179
 4238WAT     H113116   5.415   0.258   5.164
 4238WAT     H213117   5.272   0.223   5.200
 4239WAT      O13118   1.735   0.479   4.386
 4239WAT     H113119   1.703   0.500   4.298
 4239WAT     H213120   1.829   0.492   4.381
 4240WAT      O13121   5.900   3.679   1.208
 4240WAT     H113122   5.887   3.609   1.144
 4240WAT     H213123   5.920   3.756   1.155
 4241WAT      O13124   2.944   2.195   1.063
 4241WAT     H113125   3.010   2.263   1.048
 4241WAT     H213126   2.865   2.243   1.087
 4242WAT      O13127   0.402   1.195   3.555
 4242WAT     H113128   0.374   1.126   3.615
 4242WAT     H213129   0.332   1.260   3.559
 4243WAT      O13130   6.444   3.475   5.862
 4243WAT     H113131   6.448   3.403   5.924
 4243WAT     H213132   6.361   3.519   5.880
 4244WAT      O13133   7.330   6.032   1.676
 4244WAT     H113134   7.366   6.085   1.604
 4244WAT     H213135   7.284   5.961   1.632
 4245WAT      O13136   7.002   5.860   2.724
 4245WAT     H113137   7.095   5.868   2.703
 4245WAT     H213138   6.970   5.791   2.666
 4246WAT      O13139   5.213   1.110   1.702
 4246WAT     H113140   5.290   1.058   1.676
 4246WAT     H213141   5.230   1.132   1.794
 4247WAT      O13142   4.996   0.038   3.827
 4247WAT     H113143   5.025  -0.050   3.802
 4247WAT     H213144   5.052   0.097   3.776
 4248WAT      O13145   3.654   7.182   4.550
 4248WAT     H113146   3.619   7.127   4.619
 4248WAT     H213147   3.674   7.122   4.478
 4249WAT      O13148   5.049   6.413   0.534
 4249WAT     H113149   5.139   6.394   0.507
 4249WAT     H213150   4.999   6.415   0.453
 4250WAT      O13151   1.777   4.921   0.158
 4250WAT     H113152   1.706   4.891   0.102
 4250WAT     H213153   1.787   5.014   0.137
 4251WAT      O13154   2.529   2.660   2.077
 4251WAT     H113155   2.589   2.723   2.037
 4251WAT     H213156   2.461   2.647   2.011
 4252WAT      O13157   4.064   0.169   1.483
 4252WAT     H113158   4.088   0.143   1.394
 4252WAT     H213159   3.991   0.230   1.472
 4253WAT      O13160   4.339   1.382   4.682
 4253WAT     H113161   4.372   1.292   4.674
 4253WAT     H213162   4.311   1.405   4.594
 4254WAT      O13163   4.353   0.519   4.886
 4254WAT     H113164   4.410   0.495   4.813
 4254WAT     H213165   4.264   0.514   4.849
 4255WAT      O13166   6.252   4.208   5.605
 4255WAT     H113167   6.206   4.134   5.645
 4255WAT     H213168   6.259   4.272   5.676
 4256WAT      O13169   7.559   2.020   1.209
 4256WAT     H113170   7.636   2.008   1.154
 4256WAT     H213171   7.515   2.096   1.171
 4257WAT      O13172   4.871   1.085   4.799
 4257WAT     H113173   4.796   1.137   4.770
 4257WAT     H213174   4.888   1.116   4.888
 4258WAT      O13175   2.413   0.392   2.789
 4258WAT     H113176   2.397   0.441   2.708
 4258WAT     H213177   2.443   0.458   2.851
 4259WAT      O13178   2.373   4.656   5.104
 4259WAT     H113179   2.339   4.722   5.044
 4259WAT     H213180   2.297   4.629   5.156
 4260WAT      O13181   7.305   6.430   2.506
 4260WAT     H113182   7.376   6.482   2.541
 4260WAT     H213183   7.269   6.384   2.582
 4261WAT      O13184   0.498   1.913   3.675
 4261WAT     H113185   0.436   1.904   3.747
 4261WAT     H213186   0.445   1.899   3.596
 4262WAT      O13187   2.887   0.516   5.682
 4262WAT     H113188   2.871   0.594   5.734
 4262WAT     H213189   2.880   0.545   5.591
 4263WAT      O13190   6.638   4.900   3.995
 4263WAT     H113191   6.733   4.906   3.994
 4263WAT     H213192   6.613   4.927   4.084
 4264WAT      O13193   4.284   3.776   2.983
 4264WAT     H113194   4.251   3.706   3.040
 4264WAT     H213195   4.209   3.802   2.930
 4265WAT      O13196   0.070   4.430   3.648
 4265WAT     H113197   0.112   4.482   3.579
 4265WAT     H213198   0.056   4.345   3.607
 4266WAT      O13199   3.696   1.944   4.426
 4266WAT     H113200   3.660   1.908   4.345
 4266WAT     H213201   3.787   1.967   4.405
 4267WAT      O13202   6.807   2.457   0.731
 4267WAT     H113203   6.824   2.456   0.637
 4267WAT     H213204   6.838   2.543   0.760
 4268WAT      O13205   7.100   2.567   5.476
 4268WAT     H113206   7.175   2.587   5.418
 4268WAT     H213207   7.027   2.616   5.438
 4269WAT      O13208   2.836   3.043   1.328
 4269WAT     H113209   2.851   3.069   1.237
 4269WAT     H213210   2.784   3.114   1.365
 4270WAT      O13211   2.924   2.626   2.961
 4270WAT     H113212   2.900   2.603   2.871
 4270WAT     H213213   3.013   2.660   2.955
 4271WAT      O13214   4.353   4.910   4.039
 4271WAT     H113215   4.362   4.815   4.049
 4271WAT     H213216   4.431   4.945   4.082
 4272WAT      O13217   2.428   3.872   0.206
 4272WAT     H113218   2.384   3.948   0.244
 4272WAT     H213219   2.385   3.859   0.121
 4273WAT      O13220   3.427   6.908   0.706
 4273WAT     H113221   3.447   6.844   0.774
 4273WAT     H213222   3.346   6.951   0.735
 4274WAT      O13223   1.370   1.677   5.780
 4274WAT     H113224   1.319   1.611   5.731
 4274WAT     H213225   1.449   1.689   5.728
 4275WAT      O13226   4.695   3.787   1.141
 4275WAT     H113227   4.639   3.709   1.143
 4275WAT     H213228   4.675   3.833   1.222
 4276WAT      O13229   6.852   4.021   4.596
 4276WAT     H113230   6.821   4.110   4.575
 4276WAT     H213231   6.869   3.981   4.511
 4277WAT      O13232   6.582   0.179   5.765
 4277WAT     H113233   6.517   0.234   5.721
 4277WAT     H213234   6.551   0.089   5.752
 4278WAT      O13235   0.877   1.344   4.164
 4278WAT     H113236   0.858   1.282   4.094
 4278WAT     H213237   0.800   1.401   4.168
 4279WAT      O13238   6.456   0.888   4.776
 4279WAT     H113239   6.517   0.860   4.845
 4279WAT     H213240   6.444   0.981   4.792
 4280WAT      O13241   1.045   3.622   2.224
 4280WAT     H113242   1.126   3.579   2.200
 4280WAT     H213243   1.071   3.713   2.243
 4281WAT      O13244   0.898   5.997   5.141
 4281WAT     H113245   0.839   5.934   5.098
 4281WAT     H213246   0.914   6.064   5.075
 4282WAT      O13247   4.973   6.125   3.508
 4282WAT     H113248   4.936   6.072   3.438
 4282WAT     H213249   5.033   6.185   3.464
 4283WAT      O13250   1.956   3.258   1.184
 4283WAT     H113251   1.939   3.258   1.278
 4283WAT     H213252   2.044   3.222   1.176
 4284WAT      O13253   4.292   6.210   6.023
 4284WAT     H113254   4.215   6.265   6.011
 4284WAT     H213255   4.351   6.235   5.952
 4285WAT      O13256   6.937   0.094   3.859
 4285WAT     H113257   6.968   0.039   3.787
 4285WAT     H213258   6.999   0.167   3.862
 4286WAT      O13259   0.997   3.379   6.155
 4286WAT     H113260   0.943   3.300   6.148
 4286WAT     H213261   1.086   3.346   6.165
 4287WAT      O13262   3.979   6.575   2.484
 4287WAT     H113263   3.894   6.612   2.509
 4287WAT     H213264   4.012   6.635   2.417
 4288WAT      O13265   0.555   1.864   0.050
 4288WAT     H113266   0.559   1.955   0.020
 4288WAT     H213267   0.491   1.822  -0.009
 4289WAT      O13268   2.437   6.150   2.810
 4289WAT     H113269   2.356   6.119   2.849
 4289WAT     H213270   2.449   6.094   2.733
 4290WAT      O13271   5.178   0.598   2.424
 4290WAT     H113272   5.118   0.543   2.374
 4290WAT     H213273   5.129   0.619   2.504
 4291WAT      O13274   1.941   1.680   1.019
 4291WAT     H113275   2.031   1.647   1.019
 4291WAT     H213276   1.906   1.653   0.934
 4292WAT      O13277   7.241   0.739   4.523
 4292WAT     H113278   7.288   0.664   4.485
 4292WAT     H213279   7.244   0.806   4.455
 4293WAT      O13280   4.811   0.669   1.358
 4293WAT     H113281   4.787   0.585   1.319
 4293WAT     H213282   4.847   0.646   1.444
 4294WAT      O13283   3.461   7.060   3.550
 4294WAT     H113284   3.366   7.053   3.557
 4294WAT     H213285   3.476   7.106   3.468
 4295WAT      O13286   1.776   0.252   4.045
 4295WAT     H113287   1.808   0.184   3.986
 4295WAT     H213288   1.688   0.272   4.012
 4296WAT      O13289   1.912   1.554   0.331
 4296WAT     H113290   1.877   1.599   0.253
 4296WAT     H213291   1.932   1.465   0.300
 4297WAT      O13292   2.732   0.487   1.778
 4297WAT     H113293   2.684   0.543   1.717
 4297WAT     H213294   2.811   0.462   1.731
 4298WAT      O13295   2.270   1.387   0.183
 4298WAT     H113296   2.193   1.352   0.138
 4298WAT     H213297   2.328   1.312   0.193
 4299WAT      O13298   3.521   1.351   3.458
 4299WAT     H113299   3.494   1.367   3.367
 4299WAT     H213300   3.613   1.327   3.452
 4300WAT      O13301   2.043   6.257   4.532
 4300WAT     H113302   1.966   6.280   4.480
 4300WAT     H213303   2.056   6.163   4.516
 4301WAT      O13304   1.546   6.628   1.515
 4301WAT     H113305   1.607   6.564   1.479
 4301WAT     H213306   1.602   6.695   1.555
 4302WAT      O13307   7.594   0.066   6.160
 4302WAT     H113308   7.615   0.022   6.078
 4302WAT     H213309   7.640   0.150   6.155
 4303WAT      O13310   7.349   5.425   5.620
 4303WAT     H113311   7.354   5.372   5.700
 4303WAT     H213312   7.327   5.362   5.551
 4304WAT      O13313   5.695   6.804   5.130
 4304WAT     H113314   5.606   6.815   5.163
 4304WAT     H213315   5.696   6.852   5.047
 4305WAT      O13316   4.766   3.913   0.923
 4305WAT     H113317   4.728   3.857   0.991
 4305WAT     H213318   4.708   3.902   0.848
 4306WAT      O13319   0.663   7.091   5.260
 4306WAT     H113320   0.661   7.156   5.331
 4306WAT     H213321   0.600   7.123   5.196
 4307WAT      O13322   4.336   6.409   2.277
 4307WAT     H113323   4.425   6.433   2.248
 4307WAT     H213324   4.324   6.456   2.359
 4308WAT      O13325   1.717   5.022   5.164
 4308WAT     H113326   1.787   5.087   5.164
 4308WAT     H213327   1.757   4.944   5.202
 4309WAT      O13328   1.724   6.278   4.482
 4309WAT     H113329   1.792   6.251   4.420
 4309WAT     H213330   1.692   6.361   4.447
 4310WAT      O13331   4.547   0.152   1.669
 4310WAT     H113332   4.535   0.216   1.599
 4310WAT     H213333   4.631   0.112   1.650
 4311WAT      O13334   1.607   1.712   5.663
 4311WAT     H113335   1.662   1.721   5.741
 4311WAT     H213336   1.667   1.682   5.595
 4312WAT      O13337   5.659   1.116   0.192
 4312WAT     H113338   5.738   1.151   0.150
 4312WAT     H213339   5.587   1.168   0.157
 4313WAT      O13340   6.811   5.591   5.593
 4313WAT     H113341   6.818   5.531   5.668
 4313WAT     H213342   6.846   5.674   5.625
 4314WAT      O13343   0.334   6.211   3.408
 4314WAT     H113344   0.325   6.243   3.318
 4314WAT     H213345   0.350   6.117   3.398
 4315WAT      O13346   3.434   1.998   0.631
 4315WAT     H113347   3.400   1.970   0.716
 4315WAT     H213348   3.467   2.087   0.647
 4316WAT      O13349   6.401   2.999   5.382
 4316WAT     H113350   6.308   3.021   5.383
 4316WAT     H213351   6.407   2.922   5.325
 4317WAT      O13352   5.505   5.088   1.151
 4317WAT     H113353   5.509   5.056   1.062
 4317WAT     H213354   5.585   5.140   1.162
 4318WAT      O13355   3.217   0.109   2.931
 4318WAT     H113356   3.139   0.124   2.878
 4318WAT     H213357   3.258   0.195   2.939
 4319WAT      O13358   7.299   5.306   3.204
 4319WAT     H113359   7.275   5.225   3.249
 4319WAT     H213360   7.280   5.289   3.112
 4320WAT      O13361   4.163   6.689   5.356
 4320WAT     H113362   4.212   6.608   5.344
 4320WAT     H213363   4.230   6.754   5.381
 4321WAT      O13364   3.810   4.251   5.984
 4321WAT     H113365   3.833   4.238   6.076
 4321WAT     H213366   3.720   4.219   5.978
 4322WAT      O13367   5.715   5.954   4.530
 4322WAT     H113368   5.658   5.881   4.554
 4322WAT     H213369   5.791   5.913   4.489
 4323WAT      O13370   1.114   4.839   2.238
 4323WAT     H113371   1.167   4.796   2.305
 4323WAT     H213372   1.173   4.846   2.162
 4324WAT      O13373   7.609   6.510   3.551
 4324WAT     H113374   7.600   6.567   3.475
 4324WAT     H213375   7.702   6.511   3.571
 4325WAT      O13376   4.431   6.815   2.398
 4325WAT     H113377   4.510   6.815   2.343
 4325WAT     H213378   4.391   6.730   2.382
 4326WAT      O13379   6.977   6.202   2.030
 4326WAT     H113380   7.070   6.187   2.011
 4326WAT     H213381   6.934   6.196   1.945
 4327WAT      O13382   5.384   5.972   0.388
 4327WAT     H113383   5.437   5.949   0.464
 4327WAT     H213384   5.436   6.036   0.340
 4328WAT      O13385   3.304   3.300   3.511
 4328WAT     H113386   3.355   3.254   3.445
 4328WAT     H213387   3.321   3.393   3.495
 4329WAT      O13388   6.452   4.967   0.914
 4329WAT     H113389   6.506   5.045   0.905
 4329WAT     H213390   6.476   4.912   0.839
 4330WAT      O13391   4.558   3.399   0.281
 4330WAT     H113392   4.602   3.355   0.353
 4330WAT     H213393   4.559   3.335   0.210
 4331WAT      O13394   5.366   1.524   5.015
 4331WAT     H113395   5.432   1.590   4.992
 4331WAT     H213396   5.313   1.566   5.083
 4332WAT      O13397   4.205   3.110   4.337
 4332WAT     H113398   4.241   3.040   4.282
 4332WAT     H213399   4.117   3.081   4.359
 4333WAT      O13400   2.488   4.664   6.032
 4333WAT     H113401   2.573   4.704   6.014
 4333WAT     H213402   2.444   4.662   5.947
 4334WAT      O13403   4.408   1.677   6.057
 4334WAT     H113404   4.503   1.687   6.067
 4334WAT     H213405   4.392   1.701   5.965
 4335WAT      O13406   0.147   6.981   4.390
 4335WAT     H113407   0.210   6.921   4.351
 4335WAT     H213408   0.112   7.030   4.316
 4336WAT      O13409   2.512   6.877   4.065
 4336WAT     H113410   2.486   6.785   4.064
 4336WAT     H213411   2.603   6.876   4.035
 4337WAT      O13412   3.293   4.788   3.960
 4337WAT     H113413   3.362   4.739   3.916
 4337WAT     H213414   3.304   4.878   3.929
 4338WAT      O13415   0.079   3.285   3.329
 4338WAT     H113416   0.107   3.313   3.416
 4338WAT     H213417  -0.002   3.333   3.313
 4339WAT      O13418   6.579   7.173   3.414
 4339WAT     H113419   6.595   7.111   3.343
 4339WAT     H213420   6.661   7.173   3.464
 4340WAT      O13421   0.564   4.169   0.083
 4340WAT     H113422   0.630   4.116   0.038
 4340WAT     H213423   0.543   4.119   0.162
 4341WAT      O13424   3.170   2.003   5.672
 4341WAT     H113425   3.134   1.917   5.651
 4341WAT     H213426   3.093   2.058   5.688
 4342WAT      O13427   3.487   2.224   0.267
 4342WAT     H113428   3.530   2.297   0.222
 4342WAT     H213429   3.558   2.177   0.309
 4343WAT      O13430   6.846   2.394   5.769
 4343WAT     H113431   6.881   2.311   5.800
 4343WAT     H213432   6.762   2.372   5.730
 4344WAT      O13433   3.509   0.529   0.754
 4344WAT     H113434   3.573   0.461   0.777
 4344WAT     H213435   3.556   0.586   0.693
 4345WAT      O13436   0.737   2.604   0.835
 4345WAT     H113437   0.653   2.590   0.880
 4345WAT     H213438   0.713   2.633   0.747
 4346WAT      O13439   5.304   6.354   0.801
 4346WAT     H113440   5.349   6.301   0.736
 4346WAT     H213441   5.297   6.441   0.762
 4347WAT      O13442   2.605   1.877   1.804
 4347WAT     H113443   2.695   1.847   1.794
 4347WAT     H213444   2.606   1.968   1.774
 4348WAT      O13445   0.581   3.089   4.904
 4348WAT     H113446   0.495   3.126   4.884
 4348WAT     H213447   0.640   3.165   4.908
 4349WAT      O13448   6.293   7.037   5.900
 4349WAT     H113449   6.299   7.080   5.814
 4349WAT     H213450   6.205   7.057   5.930
 4350WAT      O13451   2.837   6.903   5.110
 4350WAT     H113452   2.896   6.951   5.167
 4350WAT     H213453   2.892   6.835   5.070
 4351WAT      O13454   0.382   0.178   4.955
 4351WAT     H113455   0.452   0.171   4.890
 4351WAT     H213456   0.348   0.267   4.945
 4352WAT      O13457   3.297   2.790   5.742
 4352WAT     H113458   3.208   2.789   5.708
 4352WAT     H213459   3.330   2.702   5.725
 4353WAT      O13460   4.880   4.652   2.674
 4353WAT     H113461   4.852   4.643   2.583
 4353WAT     H213462   4.850   4.571   2.716
 4354WAT      O13463   7.374   4.723   4.388
 4354WAT     H113464   7.410   4.635   4.398
 4354WAT     H213465   7.288   4.718   4.430
 4355WAT      O13466   2.865   5.329   5.924
 4355WAT     H113467   2.890   5.374   5.843
 4355WAT     H213468   2.770   5.327   5.921
 4356WAT      O13469   6.060   6.660   5.125
 4356WAT     H113470   6.090   6.660   5.216
 4356WAT     H213471   6.008   6.739   5.117
 4357WAT      O13472   4.771   4.912   3.242
 4357WAT     H113473   4.745   4.980   3.179
 4357WAT     H213474   4.695   4.853   3.246
 4358WAT      O13475   4.858   3.482   0.526
 4358WAT     H113476   4.861   3.409   0.464
 4358WAT     H213477   4.806   3.549   0.481
 4359WAT      O13478   7.328   1.086   1.191
 4359WAT     H113479   7.330   1.178   1.165
 4359WAT     H213480   7.276   1.044   1.123
 4360WAT      O13481   2.645   5.504   4.409
 4360WAT     H113482   2.652   5.592   4.447
 4360WAT     H213483   2.694   5.509   4.328
 4361WAT      O13484   1.780   6.384   3.056
 4361WAT     H113485   1.731   6.453   3.011
 4361WAT     H213486   1.871   6.400   3.033
 4362WAT      O13487   7.524   5.983   0.182
 4362WAT     H113488   7.465   5.908   0.173
 4362WAT     H213489   7.578   5.962   0.258
 4363WAT      O13490   1.834   3.624   6.165
 4363WAT     H113491   1.868   3.644   6.077
 4363WAT     H213492   1.906   3.579   6.208
 4364WAT      O13493   0.254   4.733   2.362
 4364WAT     H113494   0.329   4.712   2.307
 4364WAT     H213495   0.276   4.817   2.403
 4365WAT      O13496   3.403   6.244   3.036
 4365WAT     H113497   3.386   6.250   2.942
 4365WAT     H213498   3.368   6.159   3.061
 4366WAT      O13499   5.349   6.752   5.910
 4366WAT     H113500   5.365   6.732   6.003
 4366WAT     H213501   5.343   6.667   5.868
 4367WAT      O13502   3.962   4.489   3.724
 4367WAT     H113503   3.940   4.511   3.634
 4367WAT     H213504   3.881   4.501   3.773
 4368WAT      O13505   3.451   6.815   5.175
 4368WAT     H113506   3.419   6.905   5.178
 4368WAT     H213507   3.452   6.793   5.082
 4369WAT      O13508   4.767   4.193   4.682
 4369WAT     H113509   4.678   4.219   4.657
 4369WAT     H213510   4.810   4.173   4.599
 4370WAT      O13511   4.830   2.787   4.399
 4370WAT     H113512   4.855   2.879   4.406
 4370WAT     H213513   4.843   2.765   4.307
 4371WAT      O13514   1.535   7.102   0.559
 4371WAT     H113515   1.537   7.184   0.509
 4371WAT     H213516   1.471   7.117   0.628
 4372WAT      O13517   6.792   5.987   2.944
 4372WAT     H113518   6.879   5.986   2.904
 4372WAT     H213519   6.799   6.051   3.014
 4373WAT      O13520   3.506   0.738   1.382
 4373WAT     H113521   3.568   0.804   1.351
 4373WAT     H213522   3.558   0.681   1.439
 4374WAT      O13523   1.767   1.578   5.869
 4374WAT     H113524   1.831   1.544   5.931
 4374WAT     H213525   1.762   1.512   5.801
 4375WAT      O13526   5.939   1.393   3.996
 4375WAT     H113527   6.014   1.384   3.937
 4375WAT     H213528   5.863   1.372   3.943
 4376WAT      O13529   0.804   2.832   0.553
 4376WAT     H113530   0.710   2.822   0.536
 4376WAT     H213531   0.840   2.863   0.470
 4377WAT      O13532   4.746   4.363   3.971
 4377WAT     H113533   4.701   4.417   3.906
 4377WAT     H213534   4.837   4.362   3.942
 4378WAT      O13535   6.657   2.728   4.564
 4378WAT     H113536   6.667   2.685   4.479
 4378WAT     H213537   6.658   2.657   4.628
 4379WAT      O13538   5.517   1.116   3.727
 4379WAT     H113539   5.458   1.098   3.654
 4379WAT     H213540   5.466   1.171   3.787
 4380WAT      O13541   5.728   2.523   5.505
 4380WAT     H113542   5.639   2.540   5.535
 4380WAT     H213543   5.772   2.608   5.510
 4381WAT      O13544   0.839   5.950   3.431
 4381WAT     H113545   0.841   5.859   3.401
 4381WAT     H213546   0.910   5.992   3.384
 4382WAT      O13547   4.284   1.010   2.842
 4382WAT     H113548   4.362   1.035   2.892
 4382WAT     H213549   4.254   0.929   2.884
 4383WAT      O13550   1.292   5.521   4.324
 4383WAT     H113551   1.356   5.588   4.299
 4383WAT     H213552   1.251   5.494   4.242
 4384WAT      O13553   2.577   1.107   2.037
 4384WAT     H113554   2.617   1.122   2.122
 4384WAT     H213555   2.538   1.020   2.044
 4385WAT      O13556   4.916   3.117   2.504
 4385WAT     H113557   4.960   3.078   2.429
 4385WAT     H213558   4.858   3.048   2.537
 4386WAT      O13559   4.636   1.255   1.762
 4386WAT     H113560   4.691   1.269   1.685
 4386WAT     H213561   4.691   1.283   1.836
 4387WAT      O13562   4.716   3.610   2.144
 4387WAT     H113563   4.652   3.594   2.213
 4387WAT     H213564   4.727   3.526   2.101
 4388WAT      O13565   7.397   2.632   1.242
 4388WAT     H113566   7.350   2.626   1.158
 4388WAT     H213567   7.475   2.684   1.221
 4389WAT      O13568   0.534   4.882   1.095
 4389WAT     H113569   0.495   4.798   1.071
 4389WAT     H213570   0.612   4.889   1.039
 4390WAT      O13571   0.080   5.880   1.219
 4390WAT     H113572   0.120   5.967   1.224
 4390WAT     H213573   0.131   5.833   1.154
 4391WAT      O13574   2.545   1.358   5.655
 4391WAT     H113575   2.489   1.315   5.591
 4391WAT     H213576   2.516   1.449   5.656
 4392WAT      O13577   6.423   2.723   4.907
 4392WAT     H113578   6.375   2.652   4.951
 4392WAT     H213579   6.364   2.798   4.912
 4393WAT      O13580   7.631   4.126   0.895
 4393WAT     H113581   7.684   4.177   0.833
 4393WAT     H213582   7.541   4.141   0.866
 4394WAT      O13583   5.128   3.556   5.558
 4394WAT     H113584   5.065   3.624   5.581
 4394WAT     H213585   5.111   3.538   5.465
 4395WAT      O13586   0.055   6.101   4.711
 4395WAT     H113587   0.046   6.153   4.791
 4395WAT     H213588  -0.014   6.134   4.653
 4396WAT      O13589   6.574   4.621   1.752
 4396WAT     H113590   6.661   4.581   1.747
 4396WAT     H213591   6.525   4.580   1.681
 4397WAT      O13592   2.900   0.571   5.114
 4397WAT     H113593   2.970   0.631   5.091
 4397WAT     H213594   2.940   0.509   5.175
 4398WAT      O13595   2.551   1.558   1.328
 4398WAT     H113596   2.628   1.502   1.333
 4398WAT     H213597   2.555   1.612   1.407
 4399WAT      O13598   6.124   5.603   4.132
 4399WAT     H113599   6.030   5.590   4.118
 4399WAT     H213600   6.164   5.573   4.050
 4400WAT      O13601   7.382   2.545   3.824
 4400WAT     H113602   7.339   2.505   3.748
 4400WAT     H213603   7.472   2.559   3.795
 4401WAT      O13604   4.990   2.606   5.393
 4401WAT     H113605   4.955   2.566   5.314
 4401WAT     H213606   4.984   2.537   5.460
 4402WAT      O13607   5.926   5.905   1.079
 4402WAT     H113608   5.985   5.952   1.138
 4402WAT     H213609   5.955   5.931   0.992
 4403WAT      O13610   3.456   3.895   4.374
 4403WAT     H113611   3.489   3.810   4.402
 4403WAT     H213612   3.476   3.954   4.447
 4404WAT      O13613   3.099   4.142   1.270
 4404WAT     H113614   3.174   4.096   1.234
 4404WAT     H213615   3.099   4.226   1.225
 4405WAT      O13616   1.783   1.602   4.865
 4405WAT     H113617   1.809   1.643   4.782
 4405WAT     H213618   1.687   1.609   4.866
 4406WAT      O13619   5.205   6.904   2.030
 4406WAT     H113620   5.191   6.830   1.971
 4406WAT     H213621   5.117   6.938   2.048
 4407WAT      O13622   1.957   5.321   4.916
 4407WAT     H113623   1.921   5.270   4.843
 4407WAT     H213624   2.049   5.295   4.920
 4408WAT      O13625   0.800   5.288   2.010
 4408WAT     H113626   0.725   5.230   2.026
 4408WAT     H213627   0.862   5.236   1.961
 4409WAT      O13628   0.078   0.490   0.791
 4409WAT     H113629   0.169   0.506   0.764
 4409WAT     H213630   0.028   0.561   0.751
 4410WAT      O13631   5.473   5.004   0.538
 4410WAT     H113632   5.511   5.032   0.455
 4410WAT     H213633   5.526   4.929   0.565
 4411WAT      O13634   6.838   6.034   1.840
 4411WAT     H113635   6.893   6.060   1.766
 4411WAT     H213636   6.805   5.948   1.816
 4412WAT      O13637   0.487   4.690   2.204
 4412WAT     H113638   0.514   4.616   2.150
 4412WAT     H213639   0.556   4.697   2.270
 4413WAT      O13640   7.027   6.781   5.102
 4413WAT     H113641   6.970   6.825   5.165
 4413WAT     H213642   7.051   6.849   5.040
 4414WAT      O13643   1.417   5.773   4.991
 4414WAT     H113644   1.406   5.849   5.048
 4414WAT     H213645   1.404   5.808   4.902
 4415WAT      O13646   6.230   4.797   4.015
 4415WAT     H113647   6.208   4.829   3.927
 4415WAT     H213648   6.283   4.867   4.053
 4416WAT      O13649   7.618   6.979   2.066
 4416WAT     H113650   7.712   6.982   2.078
 4416WAT     H213651   7.604   7.000   1.974
 4417WAT      O13652   5.609   5.497   0.461
 4417WAT     H113653   5.534   5.532   0.509
 4417WAT     H213654   5.575   5.478   0.374
 4418WAT      O13655   2.739   2.788   4.648
 4418WAT     H113656   2.768   2.769   4.737
 4418WAT     H213657   2.644   2.777   4.650
 4419WAT      O13658   4.776   4.461   3.417
 4419WAT     H113659   4.719   4.389   3.389
 4419WAT     H213660   4.779   4.520   3.342
 4420WAT      O13661   5.135   6.826   1.781
 4420WAT     H113662   5.110   6.916   1.762
 4420WAT     H213663   5.194   6.801   1.710
 4421WAT      O13664   1.306   6.184   4.809
 4421WAT     H113665   1.392   6.181   4.768
 4421WAT     H213666   1.253   6.236   4.750
 4422WAT      O13667   0.335   1.490   6.008
 4422WAT     H113668   0.273   1.530   6.069
 4422WAT     H213669   0.343   1.553   5.937
 4423WAT      O13670   5.270   3.869   3.825
 4423WAT     H113671   5.253   3.788   3.776
 4423WAT     H213672   5.340   3.912   3.775
 4424WAT      O13673   3.884   1.792   5.511
 4424WAT     H113674   3.959   1.792   5.451
 4424WAT     H213675   3.811   1.762   5.457
 4425WAT      O13676   7.147   2.944   0.292
 4425WAT     H113677   7.212   2.889   0.248
 4425WAT     H213678   7.063   2.914   0.257
 4426WAT      O13679   3.110   1.333   2.309
 4426WAT     H113680   3.095   1.253   2.258
 4426WAT     H213681   3.170   1.384   2.256
 4427WAT      O13682   5.484   6.697   1.890
 4427WAT     H113683   5.413   6.638   1.915
 4427WAT     H213684   5.535   6.708   1.970
 4428WAT      O13685   4.958   3.566   6.228
 4428WAT     H113686   4.935   3.656   6.209
 4428WAT     H213687   4.944   3.519   6.146
 4429WAT      O13688   6.496   4.590   4.416
 4429WAT     H113689   6.415   4.611   4.370
 4429WAT     H213690   6.499   4.652   4.488
 4430WAT      O13691   5.567   1.574   4.415
 4430WAT     H113692   5.474   1.555   4.404
 4430WAT     H213693   5.585   1.643   4.352
 4431WAT      O13694   6.928   4.873   4.438
 4431WAT     H113695   6.910   4.956   4.394
 4431WAT     H213696   6.871   4.810   4.395
 4432WAT      O13697   1.607   2.768   4.606
 4432WAT     H113698   1.679   2.707   4.588
 4432WAT     H213699   1.650   2.852   4.624
 4433WAT      O13700   3.339   5.227   2.769
 4433WAT     H113701   3.250   5.225   2.735
 4433WAT     H213702   3.393   5.250   2.693
 4434WAT      O13703   1.333   6.570   1.668
 4434WAT     H113704   1.405   6.594   1.611
 4434WAT     H213705   1.255   6.580   1.614
 4435WAT      O13706   0.560   3.996   0.671
 4435WAT     H113707   0.598   3.920   0.626
 4435WAT     H213708   0.547   4.060   0.601
 4436WAT      O13709   4.436   6.958   4.225
 4436WAT     H113710   4.498   6.891   4.255
 4436WAT     H213711   4.417   6.934   4.134
 4437WAT      O13712   0.835   6.635   1.260
 4437WAT     H113713   0.897   6.579   1.213
 4437WAT     H213714   0.814   6.705   1.199
 4438WAT      O13715   6.122   7.032   1.570
 4438WAT     H113716   6.071   6.955   1.594
 4438WAT     H213717   6.206   6.997   1.540
 4439WAT      O13718   2.949   1.058   3.516
 4439WAT     H113719   2.935   0.982   3.573
 4439WAT     H213720   2.903   1.129   3.560
 4440WAT      O13721   1.872   6.479   6.058
 4440WAT     H113722   1.858   6.574   6.063
 4440WAT     H213723   1.803   6.442   6.112
 4441WAT      O13724   6.804   3.678   5.430
 4441WAT     H113725   6.713   3.705   5.436
 4441WAT     H213726   6.801   3.583   5.437
 4442WAT      O13727   1.916   1.628   1.714
 4442WAT     H113728   1.861   1.604   1.638
 4442WAT     H213729   1.971   1.551   1.728
 4443WAT      O13730   4.068   0.018   1.020
 4443WAT     H113731   4.122   0.093   0.998
 4443WAT     H213732   3.994   0.055   1.068
 4444WAT      O13733   6.827   0.904   6.152
 4444WAT     H113734   6.801   0.839   6.218
 4444WAT     H213735   6.827   0.855   6.070
 4445WAT      O13736   1.655   6.156   2.032
 4445WAT     H113737   1.645   6.190   2.121
 4445WAT     H213738   1.623   6.227   1.976
 4446WAT      O13739   1.742   1.359   2.456
 4446WAT     H113740   1.669   1.417   2.433
 4446WAT     H213741   1.764   1.316   2.373
 4447WAT      O13742   5.308   4.196   4.905
 4447WAT     H113743   5.394   4.236   4.918
 4447WAT     H213744   5.300   4.186   4.810
 4448WAT      O13745   6.119   4.644   0.529
 4448WAT     H113746   6.199   4.643   0.476
 4448WAT     H213747   6.116   4.558   0.570
 4449WAT      O13748   0.796   2.711   4.587
 4449WAT     H113749   0.793   2.762   4.506
 4449WAT     H213750   0.751   2.765   4.651
 4450WAT      O13751   3.425   1.482   5.856
 4450WAT     H113752   3.517   1.507   5.856
 4450WAT     H213753   3.415   1.423   5.931
 4451WAT      O13754   4.805   5.826   1.851
 4451WAT     H113755   4.874   5.767   1.821
 4451WAT     H213756   4.852   5.898   1.893
 4452WAT      O13757   2.172   1.159   3.321
 4452WAT     H113758   2.200   1.218   3.251
 4452WAT     H213759   2.174   1.072   3.281
 4453WAT      O13760   0.697   3.445   3.992
 4453WAT     H113761   0.687   3.366   3.940
 4453WAT     H213762   0.625   3.441   4.056
 4454WAT      O13763   2.087   2.753   2.715
 4454WAT     H113764   2.122   2.832   2.675
 4454WAT     H213765   2.089   2.770   2.809
 4455WAT      O13766   5.702   4.313   5.080
 4455WAT     H113767   5.683   4.274   4.994
 4455WAT     H213768   5.629   4.373   5.096
 4456WAT      O13769   3.955   1.107   2.159
 4456WAT     H113770   3.966   1.098   2.254
 4456WAT     H213771   4.040   1.140   2.129
 4457WAT      O13772   4.370   3.521   4.627
 4457WAT     H113773   4.278   3.526   4.601
 4457WAT     H213774   4.397   3.432   4.606
 4458WAT      O13775   2.045   4.594   1.222
 4458WAT     H113776   2.055   4.514   1.275
 4458WAT     H213777   2.049   4.665   1.285
 4459WAT      O13778   5.566   3.857   4.427
 4459WAT     H113779   5.525   3.927   4.377
 4459WAT     H213780   5.497   3.824   4.485
 4460WAT      O13781   3.562   5.841   1.372
 4460WAT     H113782   3.561   5.746   1.385
 4460WAT     H213783   3.649   5.868   1.402
 4461WAT      O13784   1.406   4.829   0.149
 4461WAT     H113785   1.339   4.767   0.118
 4461WAT     H213786   1.356   4.907   0.175
 4462WAT      O13787   0.489   3.300   2.241
 4462WAT     H113788   0.575   3.313   2.200
 4462WAT     H213789   0.432   3.363   2.196
 4463WAT      O13790   6.117   0.920   0.052
 4463WAT     H113791   6.040   0.964   0.015
 4463WAT     H213792   6.126   0.957   0.139
 4464WAT      O13793   5.204   1.571   3.110
 4464WAT     H113794   5.176   1.610   3.193
 4464WAT     H213795   5.130   1.585   3.050
 4465WAT      O13796   2.233   4.031   4.315
 4465WAT     H113797   2.202   3.942   4.301
 4465WAT     H213798   2.324   4.030   4.285
 4466WAT      O13799   6.216   2.912   1.980
 4466WAT     H113800   6.168   2.831   1.999
 4466WAT     H213801   6.294   2.883   1.933
 4467WAT      O13802   5.079   4.885   5.443
 4467WAT     H113803   5.128   4.825   5.387
 4467WAT     H213804   5.117   4.971   5.426
 4468WAT      O13805   3.056   5.073   1.605
 4468WAT     H113806   2.971   5.112   1.625
 4468WAT     H213807   3.051   5.049   1.513
 4469WAT      O13808   1.224   3.232   4.905
 4469WAT     H113809   1.245   3.218   4.813
 4469WAT     H213810   1.298   3.283   4.939
 4470WAT      O13811   0.872   1.435   2.844
 4470WAT     H113812   0.791   1.486   2.838
 4470WAT     H213813   0.897   1.419   2.753
 4471WAT      O13814   4.842   0.115   0.834
 4471WAT     H113815   4.887   0.042   0.790
 4471WAT     H213816   4.862   0.191   0.780
 4472WAT      O13817   0.160   3.872   6.207
 4472WAT     H113818   0.189   3.906   6.122
 4472WAT     H213819   0.080   3.921   6.226
 4473WAT      O13820   2.211   3.137   1.100
 4473WAT     H113821   2.252   3.075   1.039
 4473WAT     H213822   2.239   3.223   1.069
 4474WAT      O13823   0.240   2.809   5.534
 4474WAT     H113824   0.233   2.804   5.630
 4474WAT     H213825   0.334   2.799   5.516
 4475WAT      O13826   5.777   4.827   1.357
 4475WAT     H113827   5.807   4.768   1.288
 4475WAT     H213828   5.778   4.914   1.317
 4476WAT      O13829   0.129   5.673   4.199
 4476WAT     H113830   0.166   5.638   4.118
 4476WAT     H213831   0.115   5.766   4.182
 4477WAT      O13832   0.781   3.348   5.105
 4477WAT     H113833   0.846   3.289   5.144
 4477WAT     H213834   0.811   3.361   5.015
 4478WAT      O13835   0.805   6.605   2.496
 4478WAT     H113836   0.843   6.542   2.434
 4478WAT     H213837   0.727   6.638   2.451
 4479WAT      O13838   1.935   4.590   3.196
 4479WAT     H113839   2.028   4.614   3.193
 4479WAT     H213840   1.914   4.588   3.289
 4480WAT      O13841   2.702   7.066   3.281
 4480WAT     H113842   2.790   7.042   3.252
 4480WAT     H213843   2.688   7.155   3.247
 4481WAT      O13844   6.556   3.919   3.554
 4481WAT     H113845   6.485   3.977   3.529
 4481WAT     H213846   6.563   3.856   3.482
 4482WAT      O13847   2.071   1.839   1.552
 4482WAT     H113848   1.994   1.828   1.608
 4482WAT     H213849   2.110   1.752   1.547
 4483WAT      O13850   2.479   5.275   0.671
 4483WAT     H113851   2.455   5.367   0.678
 4483WAT     H213852   2.430   5.231   0.740
 4484WAT      O13853   2.821   3.453   1.045
 4484WAT     H113854   2.751   3.509   1.011
 4484WAT     H213855   2.860   3.504   1.116
 4485WAT      O13856   7.033   0.487   5.234
 4485WAT     H113857   7.003   0.559   5.289
 4485WAT     H213858   6.953   0.446   5.202
 4486WAT      O13859   4.414   6.666   1.194
 4486WAT     H113860   4.381   6.740   1.143
 4486WAT     H213861   4.374   6.589   1.154
 4487WAT      O13862   1.695   1.401   6.214
 4487WAT     H113863   1.725   1.365   6.298
 4487WAT     H213864   1.771   1.445   6.178
 4488WAT      O13865   2.047   4.423   2.128
 4488WAT     H113866   1.979   4.405   2.193
 4488WAT     H213867   2.004   4.480   2.064
 4489WAT      O13868   0.472   6.481   0.290
 4489WAT     H113869   0.463   6.569   0.325
 4489WAT     H213870   0.564   6.458   0.306
 4490WAT      O13871   3.836   1.555   5.256
 4490WAT     H113872   3.851   1.539   5.349
 4490WAT     H213873   3.742   1.572   5.250
 4491WAT      O13874   1.032   4.574   3.697
 4491WAT     H113875   0.937   4.584   3.694
 4491WAT     H213876   1.054   4.527   3.617
 4492WAT      O13877   3.714   1.446   5.877
 4492WAT     H113878   3.770   1.393   5.933
 4492WAT     H213879   3.752   1.534   5.880
 4493WAT      O13880   5.672   0.506   1.293
 4493WAT     H113881   5.736   0.577   1.305
 4493WAT     H213882   5.604   0.543   1.238
 4494WAT      O13883   7.120   6.816   4.471
 4494WAT     H113884   7.194   6.854   4.423
 4494WAT     H213885   7.063   6.781   4.403
 4495WAT      O13886   4.630   5.249   3.470
 4495WAT     H113887   4.582   5.203   3.402
 4495WAT     H213888   4.625   5.341   3.446
 4496WAT      O13889   6.898   1.342   1.487
 4496WAT     H113890   6.808   1.344   1.455
 4496WAT     H213891   6.890   1.328   1.581
 4497WAT      O13892   3.385   6.466   1.572
 4497WAT     H113893   3.404   6.377   1.603
 4497WAT     H213894   3.289   6.471   1.570
 4498WAT      O13895   0.184   4.903   1.961
 4498WAT     H113896   0.102   4.940   1.993
 4498WAT     H213897   0.180   4.914   1.866
 4499WAT      O13898   0.827   0.121   1.841
 4499WAT     H113899   0.736   0.093   1.839
 4499WAT     H213900   0.861   0.097   1.755
 4500WAT      O13901   6.965   6.990   1.953
 4500WAT     H113902   6.939   7.069   1.905
 4500WAT     H213903   6.914   6.920   1.914
 4501WAT      O13904   1.171   1.637   0.727
 4501WAT     H113905   1.258   1.597   0.725
 4501WAT     H213906   1.131   1.604   0.807
 4502WAT      O13907   2.685   6.011   6.187
 4502WAT     H113908   2.624   6.079   6.158
 4502WAT     H213909   2.746   6.001   6.114
 4503WAT      O13910   1.297   2.344   2.313
 4503WAT     H113911   1.364   2.321   2.249
 4503WAT     H213912   1.215   2.340   2.265
 4504WAT      O13913   3.778   1.877   2.477
 4504WAT     H113914   3.805   1.899   2.388
 4504WAT     H213915   3.683   1.877   2.474
 4505WAT      O13916   7.050   1.839   1.532
 4505WAT     H113917   7.023   1.926   1.562
 4505WAT     H213918   7.126   1.817   1.586
 4506WAT      O13919   2.617   1.742   5.900
 4506WAT     H113920   2.623   1.646   5.904
 4506WAT     H213921   2.536   1.763   5.947
 4507WAT      O13922   2.860   5.984   0.082
 4507WAT     H113923   2.824   6.044   0.017
 4507WAT     H213924   2.946   5.960   0.047
 4508WAT      O13925   5.390   3.496   5.324
 4508WAT     H113926   5.306   3.490   5.278
 4508WAT     H213927   5.427   3.408   5.318
 4509WAT      O13928   5.538   5.083   3.950
 4509WAT     H113929   5.596   5.009   3.966
 4509WAT     H213930   5.510   5.110   4.038
 4510WAT      O13931   0.904   5.525   2.773
 4510WAT     H113932   0.995   5.546   2.755
 4510WAT     H213933   0.886   5.447   2.719
 4511WAT      O13934   7.412   4.233   5.355
 4511WAT     H113935   7.378   4.145   5.337
 4511WAT     H213936   7.476   4.220   5.425
 4512WAT      O13937   3.892   0.184   3.326
 4512WAT     H113938   3.938   0.106   3.357
 4512WAT     H213939   3.858   0.160   3.240
 4513WAT      O13940   3.948   2.727   4.282
 4513WAT     H113941   3.938   2.731   4.187
 4513WAT     H213942   3.918   2.639   4.306
 4514WAT      O13943   3.274   0.747   5.684
 4514WAT     H113944   3.229   0.734   5.768
 4514WAT     H213945   3.233   0.826   5.648
 4515WAT      O13946   7.384   1.196   0.590
 4515WAT     H113947   7.317   1.134   0.560
 4515WAT     H213948   7.355   1.280   0.557
 4516WAT      O13949   5.076   5.682   5.358
 4516WAT     H113950   5.127   5.605   5.332
 4516WAT     H213951   5.014   5.696   5.287
 4517WAT      O13952   6.565   6.223   3.577
 4517WAT     H113953   6.472   6.220   3.554
 4517WAT     H213954   6.590   6.315   3.566
 4518WAT      O13955   0.548   7.105   1.718
 4518WAT     H113956   0.499   7.032   1.678
 4518WAT     H213957   0.640   7.077   1.714
 4519WAT      O13958   1.952   0.490   5.010
 4519WAT     H113959   1.906   0.573   5.025
 4519WAT     H213960   1.892   0.424   5.044
 4520WAT      O13961   1.884   4.168   5.131
 4520WAT     H113962   1.946   4.240   5.141
 4520WAT     H213963   1.908   4.127   5.048
 4521WAT      O13964   7.473   5.165   4.074
 4521WAT     H113965   7.474   5.069   4.078
 4521WAT     H213966   7.442   5.185   3.985
 4522WAT      O13967   7.519   2.191   2.711
 4522WAT     H113968   7.475   2.199   2.796
 4522WAT     H213969   7.544   2.280   2.688
 4523WAT      O13970   3.854   6.260   5.015
 4523WAT     H113971   3.802   6.260   4.934
 4523WAT     H213972   3.882   6.169   5.025
 4524WAT      O13973   7.026   2.743   0.805
 4524WAT     H113974   7.005   2.831   0.774
 4524WAT     H213975   6.996   2.742   0.896
 4525WAT      O13976   2.011   1.032   2.313
 4525WAT     H113977   1.945   0.962   2.311
 4525WAT     H213978   1.964   1.110   2.286
 4526WAT      O13979   6.457   5.147   3.978
 4526WAT     H113980   6.417   5.175   3.895
 4526WAT     H213981   6.501   5.065   3.956
 4527WAT      O13982   1.501   6.719   2.651
 4527WAT     H113983   1.515   6.776   2.727
 4527WAT     H213984   1.444   6.650   2.684
 4528WAT      O13985   6.249   0.092   3.258
 4528WAT     H113986   6.291   0.030   3.199
 4528WAT     H213987   6.158   0.063   3.263
 4529WAT      O13988   3.654   0.201   0.715
 4529WAT     H113989   3.695   0.227   0.632
 4529WAT     H213990   3.631   0.109   0.703
 4530WAT      O13991   3.201   4.874   4.526
 4530WAT     H113992   3.126   4.852   4.470
 4530WAT     H213993   3.164   4.881   4.614
 4531WAT      O13994   7.476   4.900   4.069
 4531WAT     H113995   7.495   4.849   4.148
 4531WAT     H213996   7.502   4.844   3.997
 4532WAT      O13997   1.040   2.463   1.554
 4532WAT     H113998   1.030   2.477   1.460
 4532WAT     H213999   0.989   2.533   1.594
 4533WAT      O14000   5.000   1.670   4.701
 4533WAT     H114001   5.025   1.730   4.772
 4533WAT     H214002   5.061   1.690   4.630
 4534WAT      O14003   2.451   5.878   6.052
 4534WAT     H114004   2.497   5.850   6.131
 4534WAT     H214005   2.504   5.845   5.979
 4535WAT      O14006   4.451   2.049   5.891
 4535WAT     H114007   4.407   2.130   5.866
 4535WAT     H214008   4.397   1.980   5.854
 4536WAT      O14009   0.838   6.493   1.490
 4536WAT     H114010   0.842   6.552   1.415
 4536WAT     H214011   0.843   6.405   1.452
 4537WAT      O14012   0.330   1.940   0.696
 4537WAT     H114013   0.360   1.892   0.619
 4537WAT     H214014   0.374   1.895   0.769
 4538WAT      O14015   5.944   1.607   3.376
 4538WAT     H114016   6.015   1.560   3.421
 4538WAT     H214017   5.871   1.545   3.374
 4539WAT      O14018   0.116   3.082   3.693
 4539WAT     H114019   0.164   3.022   3.636
 4539WAT     H214020   0.024   3.064   3.676
 4540WAT      O14021   4.254   5.082   4.545
 4540WAT     H114022   4.197   5.078   4.468
 4540WAT     H214023   4.205   5.040   4.615
 4541WAT      O14024   4.971   3.300   4.310
 4541WAT     H114025   4.944   3.210   4.293
 4541WAT     H214026   5.060   3.293   4.343
 4542WAT      O14027   5.080   6.948   0.472
 4542WAT     H114028   5.156   6.969   0.526
 4542WAT     H214029   5.092   6.999   0.392
 4543WAT      O14030   6.523   6.506   5.663
 4543WAT     H114031   6.505   6.528   5.571
 4543WAT     H214032   6.598   6.560   5.687
 4544WAT      O14033   0.542   3.757   0.878
 4544WAT     H114034   0.593   3.678   0.859
 4544WAT     H214035   0.518   3.791   0.792
 4545WAT      O14036   7.386   5.594   2.151
 4545WAT     H114037   7.403   5.681   2.186
 4545WAT     H214038   7.463   5.543   2.175
 4546WAT      O14039   4.972   6.972   4.050
 4546WAT     H114040   4.887   7.016   4.046
 4546WAT     H214041   5.009   6.981   3.962
 4547WAT      O14042   7.106   4.785   5.794
 4547WAT     H114043   7.046   4.858   5.777
 4547WAT     H214044   7.148   4.768   5.709
 4548WAT      O14045   5.098   5.928   5.083
 4548WAT     H114046   5.034   5.869   5.121
 4548WAT     H214047   5.075   5.935   4.991
 4549WAT      O14048   2.333   1.137   2.368
 4549WAT     H114049   2.407   1.133   2.428
 4549WAT     H214050   2.349   1.067   2.305
 4550WAT      O14051   4.887   2.430   5.822
 4550WAT     H114052   4.886   2.503   5.884
 4550WAT     H214053   4.818   2.371   5.853
 4551WAT      O14054   4.562   6.487   3.243
 4551WAT     H114055   4.496   6.464   3.177
 4551WAT     H214056   4.646   6.480   3.198
 4552WAT      O14057   0.766   0.661   2.083
 4552WAT     H114058   0.718   0.610   2.018
 4552WAT     H214059   0.853   0.623   2.085
 4553WAT      O14060   1.570   3.218   1.632
 4553WAT     H114061   1.599   3.213   1.723
 4553WAT     H214062   1.650   3.222   1.581
 4554WAT      O14063   6.629   0.564   2.090
 4554WAT     H114064   6.650   0.478   2.054
 4554WAT     H214065   6.640   0.624   2.015
 4555WAT      O14066   5.931   3.579   1.640
 4555WAT     H114067   5.967   3.502   1.684
 4555WAT     H214068   5.924   3.553   1.548
 4556WAT      O14069   3.171   2.750   2.248
 4556WAT     H114070   3.247   2.807   2.237
 4556WAT     H214071   3.203   2.678   2.302
 4557WAT      O14072   4.240   0.000   3.131
 4557WAT     H114073   4.208   0.085   3.162
 4557WAT     H214074   4.307   0.022   3.066
 4558WAT      O14075   0.473   3.136   1.226
 4558WAT     H114076   0.397   3.154   1.281
 4558WAT     H214077   0.532   3.210   1.240
 4559WAT      O14078   6.791   1.035   1.794
 4559WAT     H114079   6.745   1.026   1.877
 4559WAT     H214080   6.793   1.130   1.778
 4560WAT      O14081   7.191   0.286   2.670
 4560WAT     H114082   7.182   0.381   2.657
 4560WAT     H214083   7.127   0.248   2.609
 4561WAT      O14084   0.791   2.618   3.310
 4561WAT     H114085   0.846   2.636   3.386
 4561WAT     H214086   0.844   2.643   3.235
 4562WAT      O14087   7.097   6.739   5.804
 4562WAT     H114088   7.107   6.682   5.881
 4562WAT     H214089   7.107   6.680   5.729
 4563WAT      O14090   0.209   3.004   4.920
 4563WAT     H114091   0.252   2.992   5.005
 4563WAT     H214092   0.237   2.928   4.868
 4564WAT      O14093   1.807   4.165   3.280
 4564WAT     H114094   1.811   4.075   3.313
 4564WAT     H214095   1.810   4.156   3.185
 4565WAT      O14096   4.474   2.085   2.680
 4565WAT     H114097   4.470   2.050   2.591
 4565WAT     H214098   4.382   2.099   2.704
 4566WAT      O14099   7.153   4.332   1.598
 4566WAT     H114100   7.060   4.331   1.576
 4566WAT     H214101   7.186   4.413   1.559
 4567WAT      O14102   4.734   6.900   3.797
 4567WAT     H114103   4.710   6.823   3.745
 4567WAT     H214104   4.685   6.889   3.879
 4568WAT      O14105   6.936   3.320   5.574
 4568WAT     H114106   6.858   3.344   5.524
 4568WAT     H214107   7.008   3.328   5.511
 4569WAT      O14108   6.907   0.601   1.476
 4569WAT     H114109   6.966   0.619   1.549
 4569WAT     H214110   6.959   0.621   1.398
 4570WAT      O14111   3.208   5.906   5.104
 4570WAT     H114112   3.137   5.949   5.057
 4570WAT     H214113   3.250   5.976   5.154
 4571WAT      O14114   3.043   6.820   5.331
 4571WAT     H114115   3.120   6.767   5.353
 4571WAT     H214116   3.076   6.909   5.320
 4572WAT      O14117   4.992   5.296   0.136
 4572WAT     H114118   4.927   5.347   0.087
 4572WAT     H214119   5.076   5.330   0.108
 4573WAT      O14120   0.054   1.114   3.643
 4573WAT     H114121   0.069   1.169   3.566
 4573WAT     H214122   0.020   1.174   3.710
 4574WAT      O14123   0.460   2.536   3.469
 4574WAT     H114124   0.507   2.579   3.397
 4574WAT     H214125   0.430   2.453   3.431
 4575WAT      O14126   1.645   1.804   3.816
 4575WAT     H114127   1.654   1.899   3.815
 4575WAT     H214128   1.694   1.773   3.740
 4576WAT      O14129   6.751   2.750   2.007
 4576WAT     H114130   6.670   2.747   1.956
 4576WAT     H214131   6.790   2.835   1.985
 4577WAT      O14132   7.358   3.400   2.159
 4577WAT     H114133   7.334   3.326   2.215
 4577WAT     H214134   7.307   3.473   2.194
 4578WAT      O14135   6.596   0.750   3.412
 4578WAT     H114136   6.518   0.801   3.431
 4578WAT     H214137   6.565   0.660   3.402
 4579WAT      O14138   5.705   4.583   2.615
 4579WAT     H114139   5.667   4.646   2.554
 4579WAT     H214140   5.717   4.504   2.563
 4580WAT      O14141   3.107   2.416   5.153
 4580WAT     H114142   3.196   2.418   5.189
 4580WAT     H214143   3.103   2.332   5.107
 4581WAT      O14144   1.282   5.452   5.294
 4581WAT     H114145   1.257   5.373   5.247
 4581WAT     H214146   1.226   5.521   5.258
 4582WAT      O14147   6.877   1.464   4.385
 4582WAT     H114148   6.946   1.450   4.320
 4582WAT     H214149   6.804   1.409   4.355
 4583WAT      O14150   1.132   3.404   0.499
 4583WAT     H114151   1.050   3.369   0.464
 4583WAT     H214152   1.179   3.437   0.423
 4584WAT      O14153   3.479   6.672   2.489
 4584WAT     H114154   3.487   6.755   2.442
 4584WAT     H214155   3.435   6.614   2.427
 4585WAT      O14156   2.259   0.141   3.685
 4585WAT     H114157   2.294   0.099   3.606
 4585WAT     H214158   2.326   0.205   3.709
 4586WAT      O14159   3.085   5.318   2.994
 4586WAT     H114160   3.115   5.380   2.928
 4586WAT     H214161   2.991   5.331   3.000
 4587WAT      O14162   6.904   6.053   5.437
 4587WAT     H114163   6.957   6.066   5.358
 4587WAT     H214164   6.860   6.137   5.450
 4588WAT      O14165   5.992   3.831   1.502
 4588WAT     H114166   6.085   3.814   1.521
 4588WAT     H214167   5.945   3.773   1.561
 4589WAT      O14168   7.338   2.300   3.964
 4589WAT     H114169   7.325   2.265   3.876
 4589WAT     H214170   7.323   2.395   3.955
 4590WAT      O14171   0.623   4.775   3.080
 4590WAT     H114172   0.579   4.849   3.123
 4590WAT     H214173   0.646   4.808   2.993
 4591WAT      O14174   7.322   3.164   1.396
 4591WAT     H114175   7.313   3.094   1.331
 4591WAT     H214176   7.403   3.142   1.444
 4592WAT      O14177   6.773   5.520   1.950
 4592WAT     H114178   6.697   5.506   1.893
 4592WAT     H214179   6.847   5.528   1.890
 4593WAT      O14180   2.147   1.371   0.721
 4593WAT     H114181   2.142   1.381   0.816
 4593WAT     H214182   2.137   1.459   0.686
 4594WAT      O14183   6.319   5.531   0.468
 4594WAT     H114184   6.289   5.448   0.430
 4594WAT     H214185   6.360   5.577   0.395
 4595WAT      O14186   4.410   5.723   3.529
 4595WAT     H114187   4.490   5.706   3.479
 4595WAT     H214188   4.339   5.714   3.465
 4596WAT      O14189   5.665   3.676   1.359
 4596WAT     H114190   5.746   3.712   1.323
 4596WAT     H214191   5.610   3.659   1.283
 4597WAT      O14192   5.801   6.938   1.956
 4597WAT     H114193   5.775   6.928   1.865
 4597WAT     H214194   5.896   6.924   1.955
 4598WAT      O14195   7.432   3.441   3.840
 4598WAT     H114196   7.447   3.528   3.802
 4598WAT     H214197   7.519   3.410   3.865
 4599WAT      O14198   2.676   0.077   2.851
 4599WAT     H114199   2.588   0.100   2.822
 4599WAT     H214200   2.727   0.068   2.771
 4600WAT      O14201   6.116   4.321   3.786
 4600WAT     H114202   6.119   4.391   3.850
 4600WAT     H214203   6.156   4.358   3.707
 4601WAT      O14204   3.630   3.601   4.869
 4601WAT     H114205   3.620   3.517   4.914
 4601WAT     H214206   3.541   3.622   4.839
 4602WAT      O14207   3.585   2.075   3.174
 4602WAT     H114208   3.657   2.021   3.142
 4602WAT     H214209   3.555   2.124   3.098
 4603WAT      O14210   5.056   5.714   3.635
 4603WAT     H114211   5.140   5.675   3.659
 4603WAT     H214212   5.068   5.742   3.544
 4604WAT      O14213   5.476   0.538   6.171
 4604WAT     H114214   5.462   0.461   6.115
 4604WAT     H214215   5.466   0.612   6.112
 4605WAT      O14216   4.315   0.299   1.966
 4605WAT     H114217   4.309   0.392   1.941
 4605WAT     H214218   4.381   0.263   1.907
 4606WAT      O14219   1.846   1.494   5.154
 4606WAT     H114220   1.883   1.577   5.124
 4606WAT     H214221   1.795   1.462   5.080
 4607WAT      O14222   5.458   1.891   1.955
 4607WAT     H114223   5.365   1.888   1.978
 4607WAT     H214224   5.503   1.909   2.037
 4608WAT      O14225   1.318   6.799   6.091
 4608WAT     H114226   1.339   6.705   6.087
 4608WAT     H214227   1.385   6.840   6.037
 4609WAT      O14228   5.449   5.677   0.050
 4609WAT     H114229   5.401   5.670   0.133
 4609WAT     H214230   5.424   5.599   0.001
 4610WAT      O14231   0.954   4.482   1.259
 4610WAT     H114232   0.977   4.505   1.169
 4610WAT     H214233   1.013   4.409   1.281
 4611WAT      O14234   5.563   6.240   1.882
 4611WAT     H114235   5.480   6.254   1.837
 4611WAT     H214236   5.629   6.275   1.822
 4612WAT      O14237   6.495   0.299   3.691
 4612WAT     H114238   6.474   0.222   3.639
 4612WAT     H214239   6.575   0.334   3.651
 4613WAT      O14240   5.276   0.750   1.247
 4613WAT     H114241   5.281   0.832   1.199
 4613WAT     H214242   5.191   0.714   1.223
 4614WAT      O14243   7.072   0.156   6.077
 4614WAT     H114244   7.049   0.197   6.160
 4614WAT     H214245   7.121   0.223   6.030
 4615WAT      O14246   3.887   3.519   4.239
 4615WAT     H114247   3.842   3.514   4.154
 4615WAT     H214248   3.974   3.485   4.221
 4616WAT      O14249   2.279   1.416   3.197
 4616WAT     H114250   2.322   1.431   3.113
 4616WAT     H214251   2.188   1.443   3.184
 4617WAT      O14252   5.523   4.398   3.848
 4617WAT     H114253   5.574   4.477   3.827
 4617WAT     H214254   5.506   4.357   3.764
 4618WAT      O14255   5.434   1.889   5.905
 4618WAT     H114256   5.404   1.977   5.929
 4618WAT     H214257   5.461   1.897   5.814
 4619WAT      O14258   0.012   0.668   1.026
 4619WAT     H114259  -0.056   0.723   0.987
 4619WAT     H214260   0.093   0.701   0.988
 4620WAT      O14261   4.494   6.624   6.101
 4620WAT     H114262   4.550   6.694   6.134
 4620WAT     H214263   4.541   6.589   6.026
 4621WAT      O14264   3.804   3.989   4.622
 4621WAT     H114265   3.864   3.949   4.559
 4621WAT     H214266   3.805   3.930   4.697
 4622WAT      O14267   3.759   0.678   3.645
 4622WAT     H114268   3.822   0.688   3.716
 4622WAT     H214269   3.809   0.694   3.565
 4623WAT      O14270   6.553   6.197   5.663
 4623WAT     H114271   6.517   6.263   5.604
 4623WAT     H214272   6.529   6.114   5.624
 4624WAT      O14273   5.893   2.025   5.066
 4624WAT     H114274   5.979   2.009   5.028
 4624WAT     H214275   5.880   2.119   5.057
 4625WAT      O14276   4.355   0.539   4.603
 4625WAT     H114277   4.442   0.562   4.570
 4625WAT     H214278   4.307   0.622   4.601
 4626WAT      O14279   2.407   6.920   3.698
 4626WAT     H114280   2.489   6.873   3.718
 4626WAT     H214281   2.436   7.005   3.666
 4627WAT      O14282   4.794   2.088   4.297
 4627WAT     H114283   4.744   2.052   4.224
 4627WAT     H214284   4.878   2.114   4.259
 4628WAT      O14285   3.044   2.009   0.906
 4628WAT     H114286   3.010   2.056   0.983
 4628WAT     H214287   3.004   2.054   0.831
 4629WAT      O14288   5.077   6.257   5.749
 4629WAT     H114289   4.996   6.235   5.703
 4629WAT     H214290   5.094   6.348   5.724
 4630WAT      O14291   2.144   1.408   1.521
 4630WAT     H114292   2.198   1.352   1.464
 4630WAT     H214293   2.198   1.485   1.537
 4631WAT      O14294   5.244   5.478   5.266
 4631WAT     H114295   5.273   5.452   5.178
 4631WAT     H214296   5.314   5.447   5.323
 4632WAT      O14297   5.990   3.316   1.456
 4632WAT     H114298   5.922   3.332   1.391
 4632WAT     H214299   6.064   3.282   1.405
 4633WAT      O14300   0.236   5.208   1.879
 4633WAT     H114301   0.277   5.145   1.820
 4633WAT     H214302   0.153   5.230   1.837
 4634WAT      O14303   3.216   0.141   5.314
 4634WAT     H114304   3.225   0.134   5.409
 4634WAT     H214305   3.271   0.071   5.280
 4635WAT      O14306   7.012   3.143   1.391
 4635WAT     H114307   7.011   3.059   1.345
 4635WAT     H214308   7.059   3.125   1.472
 4636WAT      O14309   1.216   6.487   5.925
 4636WAT     H114310   1.131   6.529   5.911
 4636WAT     H214311   1.274   6.529   5.861
 4637WAT      O14312   4.724   0.448   1.229
 4637WAT     H114313   4.802   0.393   1.230
 4637WAT     H214314   4.673   0.416   1.155
 4638WAT      O14315   2.388   1.845   1.031
 4638WAT     H114316   2.347   1.776   0.978
 4638WAT     H214317   2.317   1.907   1.049
 4639WAT      O14318   6.469   1.966   5.428
 4639WAT     H114319   6.405   1.989   5.361
 4639WAT     H214320   6.418   1.933   5.501
 4640WAT      O14321   1.243   1.122   2.371
 4640WAT     H114322   1.233   1.180   2.447
 4640WAT     H214323   1.244   1.034   2.407
 4641WAT      O14324   5.228   0.378   5.652
 4641WAT     H114325   5.208   0.426   5.733
 4641WAT     H214326   5.287   0.308   5.680
 4642WAT      O14327   4.367   7.129   4.418
 4642WAT     H114328   4.375   7.078   4.337
 4642WAT     H214329   4.340   7.217   4.388
 4643WAT      O14330   1.295   6.597   2.801
 4643WAT     H114331   1.221   6.658   2.803
 4643WAT     H214332   1.255   6.511   2.786
 4644WAT      O14333   4.928   4.177   5.726
 4644WAT     H114334   4.880   4.246   5.680
 4644WAT     H214335   4.883   4.169   5.811
 4645WAT      O14336   0.764   3.986   0.014
 4645WAT     H114337   0.832   3.956  -0.047
 4645WAT     H214338   0.728   3.905   0.050
 4646WAT      O14339   3.636   6.277   0.634
 4646WAT     H114340   3.610   6.223   0.559
 4646WAT     H214341   3.649   6.364   0.597
 4647WAT      O14342   0.609   3.924   4.009
 4647WAT     H114343   0.557   3.959   3.937
 4647WAT     H214344   0.661   3.854   3.970
 4648WAT      O14345   3.721   2.052   2.696
 4648WAT     H114346   3.754   1.999   2.624
 4648WAT     H214347   3.770   2.022   2.773
 4649WAT      O14348   6.849   1.581   5.347
 4649WAT     H114349   6.923   1.589   5.286
 4649WAT     H214350   6.794   1.513   5.309
 4650WAT      O14351   3.553   1.872   0.433
 4650WAT     H114352   3.594   1.945   0.387
 4650WAT     H214353   3.511   1.912   0.509
 4651WAT      O14354   5.689   1.154   1.886
 4651WAT     H114355   5.627   1.215   1.927
 4651WAT     H214356   5.708   1.193   1.801
 4652WAT      O14357   7.410   4.370   3.802
 4652WAT     H114358   7.462   4.449   3.819
 4652WAT     H214359   7.393   4.373   3.708
 4653WAT      O14360   2.030   0.742   5.761
 4653WAT     H114361   2.074   0.805   5.704
 4653WAT     H214362   1.994   0.795   5.832
 4654WAT      O14363   1.279   5.310   4.888
 4654WAT     H114364   1.361   5.287   4.845
 4654WAT     H214365   1.254   5.394   4.849
 4655WAT      O14366   5.939   6.029   3.629
 4655WAT     H114367   6.005   5.980   3.579
 4655WAT     H214368   5.927   6.109   3.578
 4656WAT      O14369   5.478   0.615   1.106
 4656WAT     H114370   5.424   0.674   1.158
 4656WAT     H214371   5.525   0.673   1.046
 4657WAT      O14372   6.603   6.224   3.237
 4657WAT     H114373   6.582   6.164   3.165
 4657WAT     H214374   6.638   6.167   3.306
 4658WAT      O14375   0.465   3.262   3.022
 4658WAT     H114376   0.484   3.256   2.928
 4658WAT     H214377   0.369   3.266   3.026
 4659WAT      O14378   6.633   0.007   2.195
 4659WAT     H114379   6.594  -0.023   2.112
 4659WAT     H214380   6.653   0.099   2.181
 4660WAT      O14381   4.407   5.864   5.787
 4660WAT     H114382   4.499   5.887   5.799
 4660WAT     H214383   4.407   5.807   5.710
 4661WAT      O14384   5.662   1.859   3.979
 4661WAT     H114385   5.680   1.919   4.051
 4661WAT     H214386   5.723   1.886   3.910
 4662WAT      O14387   5.160   6.340   6.232
 4662WAT     H114388   5.071   6.356   6.200
 4662WAT     H214389   5.201   6.288   6.163
 4663WAT      O14390   6.016   0.932   5.852
 4663WAT     H114391   5.978   0.993   5.788
 4663WAT     H214392   6.077   0.986   5.902
 4664WAT      O14393   6.932   4.870   5.362
 4664WAT     H114394   6.891   4.880   5.276
 4664WAT     H214395   6.867   4.902   5.424
 4665WAT      O14396   4.746   3.128   2.910
 4665WAT     H114397   4.817   3.064   2.906
 4665WAT     H214398   4.788   3.212   2.890
 4666WAT      O14399   2.685   0.743   4.411
 4666WAT     H114400   2.630   0.821   4.428
 4666WAT     H214401   2.633   0.691   4.350
 4667WAT      O14402   4.579   4.429   0.404
 4667WAT     H114403   4.537   4.418   0.490
 4667WAT     H214404   4.543   4.511   0.371
 4668WAT      O14405   3.804   3.488   0.704
 4668WAT     H114406   3.767   3.401   0.690
 4668WAT     H214407   3.731   3.540   0.738
 4669WAT      O14408   3.499   2.983   1.895
 4669WAT     H114409   3.549   2.906   1.923
 4669WAT     H214410   3.552   3.023   1.827
 4670WAT      O14411   7.155   5.098   4.590
 4670WAT     H114412   7.130   5.046   4.514
 4670WAT     H214413   7.225   5.155   4.557
 4671WAT      O14414   5.471   5.016   0.894
 4671WAT     H114415   5.458   4.929   0.858
 4671WAT     H214416   5.503   5.069   0.820
 4672WAT      O14417   0.486   1.906   1.603
 4672WAT     H114418   0.446   1.917   1.516
 4672WAT     H214419   0.552   1.839   1.590
 4673WAT      O14420   6.676   0.815   1.367
 4673WAT     H114421   6.719   0.739   1.328
 4673WAT     H214422   6.612   0.843   1.301
 4674WAT      O14423   6.328   0.893   2.994
 4674WAT     H114424   6.357   0.867   2.906
 4674WAT     H214425   6.234   0.906   2.985
 4675WAT      O14426   7.223   2.107   0.516
 4675WAT     H114427   7.210   2.014   0.533
 4675WAT     H214428   7.183   2.122   0.431
 4676WAT      O14429   2.489   7.084   0.421
 4676WAT     H114430   2.424   7.116   0.358
 4676WAT     H214431   2.529   7.164   0.456
 4677WAT      O14432   5.240   2.595   2.306
 4677WAT     H114433   5.159   2.555   2.276
 4677WAT     H214434   5.292   2.608   2.226
 4678WAT      O14435   7.510   4.489   4.406
 4678WAT     H114436   7.460   4.408   4.415
 4678WAT     H214437   7.563   4.475   4.327
 4679WAT      O14438   4.213   0.870   0.307
 4679WAT     H114439   4.133   0.921   0.322
 4679WAT     H214440   4.258   0.917   0.237
 4680WAT      O14441   2.771   3.006   5.249
 4680WAT     H114442   2.858   3.033   5.221
 4680WAT     H214443   2.726   2.981   5.169
 4681WAT      O14444   2.077   0.520   2.652
 4681WAT     H114445   1.992   0.524   2.609
 4681WAT     H214446   2.139   0.504   2.580
 4682WAT      O14447   1.587   3.676   0.086
 4682WAT     H114448   1.634   3.654   0.166
 4682WAT     H214449   1.590   3.596   0.034
 4683WAT      O14450   6.826   2.396   1.094
 4683WAT     H114451   6.812   2.302   1.082
 4683WAT     H214452   6.746   2.436   1.060
 4684WAT      O14453   6.610   5.464   3.540
 4684WAT     H114454   6.613   5.374   3.506
 4684WAT     H214455   6.653   5.516   3.472
 4685WAT      O14456   4.891   5.418   5.574
 4685WAT     H114457   4.970   5.402   5.524
 4685WAT     H214458   4.858   5.331   5.597
 4686WAT      O14459   7.230   4.276   0.089
 4686WAT     H114460   7.248   4.304   0.000
 4686WAT     H214461   7.135   4.281   0.097
 4687WAT      O14462   4.955   0.557   5.298
 4687WAT     H114463   4.945   0.475   5.346
 4687WAT     H214464   4.974   0.531   5.208
 4688WAT      O14465   2.013   2.349   6.131
 4688WAT     H114466   2.088   2.339   6.072
 4688WAT     H214467   1.968   2.265   6.126
 4689WAT      O14468   2.783   3.772   0.796
 4689WAT     H114469   2.747   3.853   0.831
 4689WAT     H214470   2.767   3.777   0.702
 4690WAT      O14471   6.317   1.731   4.881
 4690WAT     H114472   6.262   1.663   4.842
 4690WAT     H214473   6.360   1.772   4.807
 4691WAT      O14474   7.590   3.893   0.494
 4691WAT     H114475   7.677   3.923   0.471
 4691WAT     H214476   7.589   3.800   0.469
 4692WAT      O14477   5.554   0.910   4.572
 4692WAT     H114478   5.536   0.854   4.497
 4692WAT     H214479   5.623   0.970   4.542
 4693WAT      O14480   7.171   4.876   0.305
 4693WAT     H114481   7.151   4.813   0.236
 4693WAT     H214482   7.266   4.887   0.300
 4694WAT      O14483   4.086   5.327   3.818
 4694WAT     H114484   4.094   5.392   3.888
 4694WAT     H214485   4.142   5.255   3.847
 4695WAT      O14486   1.500   3.142   4.779
 4695WAT     H114487   1.427   3.146   4.716
 4695WAT     H214488   1.573   3.184   4.733
 4696WAT      O14489   0.545   4.813   2.622
 4696WAT     H114490   0.585   4.873   2.559
 4696WAT     H214491   0.602   4.736   2.622
 4697WAT      O14492   6.870   4.764   3.613
 4697WAT     H114493   6.790   4.771   3.666
 4697WAT     H214494   6.908   4.680   3.640
 4698WAT      O14495   0.958   1.386   5.297
 4698WAT     H114496   1.018   1.372   5.370
 4698WAT     H214497   0.880   1.424   5.337
 4699WAT      O14498   0.427   2.839   6.227
 4699WAT     H114499   0.504   2.800   6.268
 4699WAT     H214500   0.438   2.822   6.134
 4700WAT      O14501   3.004   4.674   3.549
 4700WAT     H114502   2.969   4.762   3.560
 4700WAT     H214503   3.098   4.683   3.560
 4701WAT      O14504   1.346   6.006   4.301
 4701WAT     H114505   1.338   5.947   4.225
 4701WAT     H214506   1.440   6.027   4.304
 4702WAT      O14507   4.864   4.125   3.649
 4702WAT     H114508   4.891   4.039   3.680
 4702WAT     H214509   4.894   4.185   3.717
 4703WAT      O14510   3.859   6.615   2.155
 4703WAT     H114511   3.775   6.580   2.186
 4703WAT     H214512   3.921   6.543   2.169
 4704WAT      O14513   3.854   6.298   2.512
 4704WAT     H114514   3.870   6.207   2.487
 4704WAT     H214515   3.932   6.345   2.481
 4705WAT      O14516   0.503   2.294   1.672
 4705WAT     H114517   0.498   2.272   1.579
 4705WAT     H214518   0.571   2.236   1.707
 4706WAT      O14519   3.078   3.486   3.813
 4706WAT     H114520   3.043   3.436   3.739
 4706WAT     H214521   3.028   3.568   3.813
 4707WAT      O14522   6.965   2.135   4.687
 4707WAT     H114523   6.921   2.202   4.635
 4707WAT     H214524   6.933   2.052   4.651
 4708WAT      O14525   4.071   5.192   4.932
 4708WAT     H114526   3.996   5.243   4.963
 4708WAT     H214527   4.035   5.132   4.867
 4709WAT      O14528   6.080   3.819   4.285
 4709WAT     H114529   6.126   3.884   4.339
 4709WAT     H214530   5.992   3.815   4.322
 4710WAT      O14531   3.946   6.963   1.623
 4710WAT     H114532   3.932   6.872   1.595
 4710WAT     H214533   3.930   7.015   1.544
 4711WAT      O14534   1.870   3.942   3.882
 4711WAT     H114535   1.809   3.979   3.818
 4711WAT     H214536   1.941   3.906   3.829
 4712WAT      O14537   1.862   3.148   2.770
 4712WAT     H114538   1.866   3.059   2.805
 4712WAT     H214539   1.933   3.152   2.707
 4713WAT      O14540   3.878   4.712   0.243
 4713WAT     H114541   3.790   4.751   0.240
 4713WAT     H214542   3.913   4.741   0.327
 4714WAT      O14543   4.870   0.569   3.020
 4714WAT     H114544   4.849   0.534   3.106
 4714WAT     H214545   4.786   0.596   2.983
 4715WAT      O14546   4.044   2.614   1.479
 4715WAT     H114547   4.027   2.596   1.387
 4715WAT     H214548   4.113   2.552   1.503
 4716WAT      O14549   5.659   1.540   3.518
 4716WAT     H114550   5.721   1.471   3.495
 4716WAT     H214551   5.714   1.614   3.544
 4717WAT      O14552   3.003   1.044   3.913
 4717WAT     H114553   2.917   1.009   3.938
 4717WAT     H214554   2.987   1.137   3.895
 4718WAT      O14555   7.618   2.426   6.123
 4718WAT     H114556   7.710   2.400   6.135
 4718WAT     H214557   7.574   2.345   6.097
 4719WAT      O14558   0.248   4.286   4.385
 4719WAT     H114559   0.329   4.238   4.367
 4719WAT     H214560   0.235   4.341   4.307
 4720WAT      O14561   2.809   1.052   5.930
 4720WAT     H114562   2.761   1.126   5.892
 4720WAT     H214563   2.899   1.082   5.935
 4721WAT      O14564   4.443   0.119   1.076
 4721WAT     H114565   4.478   0.202   1.107
 4721WAT     H214566   4.422   0.135   0.983
 4722WAT      O14567   3.866   1.927   5.733
 4722WAT     H114568   3.861   1.895   5.643
 4722WAT     H214569   3.942   1.986   5.733
 4723WAT      O14570   0.373   5.407   0.502
 4723WAT     H114571   0.370   5.342   0.572
 4723WAT     H214572   0.409   5.360   0.427
 4724WAT      O14573   5.849   5.255   5.386
 4724WAT     H114574   5.846   5.243   5.480
 4724WAT     H214575   5.864   5.167   5.351
 4725WAT      O14576   5.434   6.149   1.290
 4725WAT     H114577   5.514   6.116   1.251
 4725WAT     H214578   5.432   6.112   1.378
 4726WAT      O14579   4.338   1.760   1.951
 4726WAT     H114580   4.429   1.765   1.923
 4726WAT     H214581   4.309   1.851   1.954
 4727WAT      O14582   5.238   1.755   0.331
 4727WAT     H114583   5.215   1.846   0.352
 4727WAT     H214584   5.154   1.710   0.323
 4728WAT      O14585   3.388   6.829   2.168
 4728WAT     H114586   3.437   6.888   2.111
 4728WAT     H214587   3.328   6.783   2.110
 4729WAT      O14588   2.362   5.900   1.215
 4729WAT     H114589   2.333   5.963   1.281
 4729WAT     H214590   2.296   5.830   1.219
 4730WAT      O14591   1.922   7.088   5.726
 4730WAT     H114592   1.874   7.050   5.653
 4730WAT     H214593   1.905   7.182   5.720
 4731WAT      O14594   4.102   2.175   3.620
 4731WAT     H114595   4.077   2.098   3.570
 4731WAT     H214596   4.100   2.247   3.556
 4732WAT      O14597   4.463   6.263   5.821
 4732WAT     H114598   4.503   6.349   5.831
 4732WAT     H214599   4.473   6.242   5.728
 4733WAT      O14600   6.352   4.036   6.030
 4733WAT     H114601   6.268   4.083   6.028
 4733WAT     H214602   6.381   4.040   6.121
 4734WAT      O14603   2.892   2.619   5.577
 4734WAT     H114604   2.894   2.645   5.485
 4734WAT     H214605   2.982   2.627   5.606
 4735WAT      O14606   0.193   2.223   4.300
 4735WAT     H114607   0.119   2.249   4.245
 4735WAT     H214608   0.270   2.240   4.246
 4736WAT      O14609   6.108   3.303   3.649
 4736WAT     H114610   6.160   3.381   3.629
 4736WAT     H214611   6.063   3.283   3.568
 4737WAT      O14612   4.845   4.399   2.231
 4737WAT     H114613   4.817   4.467   2.292
 4737WAT     H214614   4.924   4.434   2.190
 4738WAT      O14615   0.630   0.290   5.384
 4738WAT     H114616   0.671   0.261   5.302
 4738WAT     H214617   0.702   0.325   5.436
 4739WAT      O14618   6.410   6.956   2.979
 4739WAT     H114619   6.503   6.940   3.000
 4739WAT     H214620   6.394   6.903   2.901
 4740WAT      O14621   0.393   3.737   6.213
 4740WAT     H114622   0.313   3.785   6.234
 4740WAT     H214623   0.433   3.719   6.298
 4741WAT      O14624   3.324   1.926   0.857
 4741WAT     H114625   3.332   1.873   0.936
 4741WAT     H214626   3.230   1.945   0.851
 4742WAT      O14627   0.442   5.881   0.847
 4742WAT     H114628   0.455   5.968   0.883
 4742WAT     H214629   0.368   5.891   0.786
 4743WAT      O14630   0.364   0.124   3.354
 4743WAT     H114631   0.458   0.144   3.352
 4743WAT     H214632   0.336   0.130   3.263
 4744WAT      O14633   6.057   4.546   0.108
 4744WAT     H114634   6.080   4.466   0.061
 4744WAT     H214635   6.091   4.617   0.053
 4745WAT      O14636   1.952   3.950   5.844
 4745WAT     H114637   2.009   4.005   5.789
 4745WAT     H214638   2.008   3.877   5.870
 4746WAT      O14639   4.796   5.498   5.964
 4746WAT     H114640   4.785   5.524   6.056
 4746WAT     H214641   4.885   5.525   5.942
 4747WAT      O14642   0.410   6.363   4.739
 4747WAT     H114643   0.316   6.362   4.754
 4747WAT     H214644   0.435   6.270   4.741
 4748WAT      O14645   1.105   5.176   0.493
 4748WAT     H114646   1.018   5.216   0.493
 4748WAT     H214647   1.153   5.223   0.562
 4749WAT      O14648   2.833   5.724   5.188
 4749WAT     H114649   2.907   5.666   5.205
 4749WAT     H214650   2.830   5.731   5.093
 4750WAT      O14651   1.821   5.876   5.068
 4750WAT     H114652   1.893   5.938   5.080
 4750WAT     H214653   1.748   5.914   5.117
 4751WAT      O14654   0.319   3.601   0.962
 4751WAT     H114655   0.374   3.679   0.956
 4751WAT     H214656   0.245   3.619   0.904
 4752WAT      O14657   6.967   0.721   2.752
 4752WAT     H114658   6.919   0.679   2.681
 4752WAT     H214659   7.032   0.776   2.709
 4753WAT      O14660   0.250   4.065   5.109
 4753WAT     H114661   0.287   4.051   5.022
 4753WAT     H214662   0.163   4.025   5.104
 4754WAT      O14663   4.623   5.094   5.216
 4754WAT     H114664   4.699   5.105   5.272
 4754WAT     H214665   4.552   5.137   5.264
 4755WAT      O14666   4.307   2.327   4.514
 4755WAT     H114667   4.262   2.412   4.508
 4755WAT     H214668   4.245   2.264   4.478
 4756WAT      O14669   0.594   4.447   2.086
 4756WAT     H114670   0.688   4.461   2.072
 4756WAT     H214671   0.559   4.430   1.998
 4757WAT      O14672   4.066   3.526   2.759
 4757WAT     H114673   4.076   3.603   2.814
 4757WAT     H214674   4.056   3.560   2.670
 4758WAT      O14675   1.838   1.965   5.599
 4758WAT     H114676   1.834   1.870   5.588
 4758WAT     H214677   1.830   1.999   5.510
 4759WAT      O14678   3.796   0.957   2.002
 4759WAT     H114679   3.845   1.000   2.073
 4759WAT     H214680   3.831   0.997   1.922
 4760WAT      O14681   3.635   3.018   4.641
 4760WAT     H114682   3.578   3.046   4.713
 4760WAT     H214683   3.693   3.092   4.626
 4761WAT      O14684   7.494   7.033   0.465
 4761WAT     H114685   7.413   7.039   0.415
 4761WAT     H214686   7.526   6.944   0.449
 4762WAT      O14687   4.185   2.350   5.136
 4762WAT     H114688   4.157   2.423   5.082
 4762WAT     H214689   4.230   2.291   5.075
 4763WAT      O14690   1.841   4.077   2.335
 4763WAT     H114691   1.755   4.111   2.311
 4763WAT     H214692   1.839   4.074   2.431
 4764WAT      O14693   2.557   6.171   0.102
 4764WAT     H114694   2.580   6.220   0.024
 4764WAT     H214695   2.475   6.126   0.079
 4765WAT      O14696   1.841   2.229   4.220
 4765WAT     H114697   1.838   2.238   4.125
 4765WAT     H214698   1.811   2.140   4.237
 4766WAT      O14699   7.532   3.079   3.960
 4766WAT     H114700   7.525   3.134   4.038
 4766WAT     H214701   7.479   3.123   3.894
 4767WAT      O14702   0.929   6.122   4.199
 4767WAT     H114703   0.923   6.041   4.149
 4767WAT     H214704   0.978   6.181   4.142
 4768WAT      O14705   6.743   6.572   4.461
 4768WAT     H114706   6.717   6.506   4.526
 4768WAT     H214707   6.681   6.561   4.389
 4769WAT      O14708   4.294   0.188   0.788
 4769WAT     H114709   4.270   0.110   0.737
 4769WAT     H214710   4.334   0.246   0.723
 4770WAT      O14711   4.434   4.421   5.940
 4770WAT     H114712   4.396   4.366   5.872
 4770WAT     H214713   4.385   4.503   5.934
 4771WAT      O14714   6.678   0.570   1.683
 4771WAT     H114715   6.664   0.481   1.650
 4771WAT     H214716   6.728   0.614   1.614
 4772WAT      O14717   5.556   0.785   3.729
 4772WAT     H114718   5.484   0.843   3.754
 4772WAT     H214719   5.555   0.785   3.633
 4773WAT      O14720   7.266   4.824   3.514
 4773WAT     H114721   7.212   4.880   3.570
 4773WAT     H214722   7.213   4.745   3.500
 4774WAT      O14723   2.647   3.658   2.881
 4774WAT     H114724   2.721   3.602   2.859
 4774WAT     H214725   2.644   3.724   2.812
 4775WAT      O14726   7.417   2.498   2.088
 4775WAT     H114727   7.438   2.404   2.081
 4775WAT     H214728   7.421   2.529   1.997
 4776WAT      O14729   6.195   6.696   0.401
 4776WAT     H114730   6.203   6.751   0.323
 4776WAT     H214731   6.129   6.739   0.454
 4777WAT      O14732   5.391   0.416   2.541
 4777WAT     H114733   5.451   0.403   2.468
 4777WAT     H214734   5.323   0.473   2.506
 4778WAT      O14735   1.478   2.058   2.854
 4778WAT     H114736   1.465   2.071   2.948
 4778WAT     H214737   1.473   2.146   2.816
 4779WAT      O14738   5.362   3.914   2.368
 4779WAT     H114739   5.279   3.927   2.321
 4779WAT     H214740   5.337   3.868   2.449
 4780WAT      O14741   4.095   3.008   5.366
 4780WAT     H114742   4.182   3.047   5.378
 4780WAT     H214743   4.074   3.026   5.274
 4781WAT      O14744   1.544   5.004   3.408
 4781WAT     H114745   1.595   4.974   3.333
 4781WAT     H214746   1.530   4.926   3.461
 4782WAT      O14747   4.565   6.236   2.024
 4782WAT     H114748   4.577   6.321   2.066
 4782WAT     H214749   4.501   6.253   1.954
 4783WAT      O14750   0.815   0.540   5.689
 4783WAT     H114751   0.798   0.613   5.749
 4783WAT     H214752   0.763   0.560   5.611
 4784WAT      O14753   0.688   4.151   4.166
 4784WAT     H114754   0.676   4.070   4.117
 4784WAT     H214755   0.603   4.195   4.160
 4785WAT      O14756   6.524   2.919   2.635
 4785WAT     H114757   6.531   2.882   2.547
 4785WAT     H214758   6.431   2.910   2.657
 4786WAT      O14759   5.041   6.729   0.264
 4786WAT     H114760   4.981   6.732   0.190
 4786WAT     H214761   5.002   6.787   0.329
 4787WAT      O14762   4.206   6.010   0.184
 4787WAT     H114763   4.174   5.927   0.148
 4787WAT     H214764   4.160   6.019   0.267
 4788WAT      O14765   2.422   2.353   0.133
 4788WAT     H114766   2.481   2.304   0.076
 4788WAT     H214767   2.368   2.286   0.176
 4789WAT      O14768   7.245   1.574   3.231
 4789WAT     H114769   7.213   1.609   3.148
 4789WAT     H214770   7.305   1.641   3.263
 4790WAT      O14771   5.408   0.813   0.744
 4790WAT     H114772   5.328   0.766   0.768
 4790WAT     H214773   5.378   0.883   0.686
 4791WAT      O14774   0.663   1.645   2.572
 4791WAT     H114775   0.685   1.738   2.574
 4791WAT     H214776   0.624   1.631   2.485
 4792WAT      O14777   2.461   0.385   4.310
 4792WAT     H114778   2.370   0.365   4.332
 4792WAT     H214779   2.494   0.433   4.386
 4793WAT      O14780   0.052   3.036   1.332
 4793WAT     H114781   0.033   3.058   1.241
 4793WAT     H214782   0.129   3.088   1.353
 4794WAT      O14783   1.708   5.213   4.236
 4794WAT     H114784   1.761   5.140   4.204
 4794WAT     H214785   1.654   5.238   4.161
 4795WAT      O14786   7.602   5.012   6.125
 4795WAT     H114787   7.615   5.011   6.030
 4795WAT     H214788   7.691   5.016   6.160
 4796WAT      O14789   3.831   0.314   2.772
 4796WAT     H114790   3.891   0.306   2.698
 4796WAT     H214791   3.797   0.403   2.766
 4797WAT      O14792   2.942   4.550   5.008
 4797WAT     H114793   2.892   4.532   4.928
 4797WAT     H214794   2.881   4.529   5.079
 4798WAT      O14795   3.730   5.117   0.453
 4798WAT     H114796   3.693   5.201   0.480
 4798WAT     H214797   3.684   5.052   0.505
 4799WAT      O14798   3.111   6.039   5.458
 4799WAT     H114799   3.080   6.119   5.415
 4799WAT     H214800   3.193   6.065   5.499
 4800WAT      O14801   5.626   5.025   5.518
 4800WAT     H114802   5.714   5.016   5.553
 4800WAT     H214803   5.613   4.947   5.464
 4801WAT      O14804   2.334   0.357   1.012
 4801WAT     H114805   2.271   0.288   0.989
 4801WAT     H214806   2.419   0.313   1.012
 4802WAT      O14807   6.165   3.320   0.221
 4802WAT     H114808   6.182   3.296   0.130
 4802WAT     H214809   6.252   3.331   0.259
 4803WAT      O14810   3.707   2.106   1.183
 4803WAT     H114811   3.706   2.179   1.245
 4803WAT     H214812   3.689   2.147   1.098
 4804WAT      O14813   1.307   0.984   5.599
 4804WAT     H114814   1.271   0.930   5.529
 4804WAT     H214815   1.230   1.021   5.643
 4805WAT      O14816   4.215   4.243   2.262
 4805WAT     H114817   4.292   4.220   2.210
 4805WAT     H214818   4.225   4.336   2.281
 4806WAT      O14819   5.049   7.110   1.803
 4806WAT     H114820   5.139   7.114   1.836
 4806WAT     H214821   5.017   7.201   1.810
 4807WAT      O14822   5.753   4.316   1.828
 4807WAT     H114823   5.828   4.257   1.817
 4807WAT     H214824   5.777   4.372   1.902
 4808WAT      O14825   7.229   3.173   4.267
 4808WAT     H114826   7.287   3.206   4.199
 4808WAT     H214827   7.191   3.093   4.230
 4809WAT      O14828   4.174   2.402   0.024
 4809WAT     H114829   4.093   2.451   0.041
 4809WAT     H214830   4.226   2.460  -0.032
 4810WAT      O14831   3.000   6.829   6.055
 4810WAT     H114832   2.939   6.756   6.059
 4810WAT     H214833   2.944   6.906   6.042
 4811WAT      O14834   5.451   7.038   2.057
 4811WAT     H114835   5.441   7.089   1.976
 4811WAT     H214836   5.371   6.987   2.063
 4812WAT      O14837   3.674   4.222   3.515
 4812WAT     H114838   3.665   4.146   3.457
 4812WAT     H214839   3.602   4.280   3.491
 4813WAT      O14840   1.348   6.404   3.822
 4813WAT     H114841   1.320   6.493   3.800
 4813WAT     H214842   1.267   6.352   3.820
 4814WAT      O14843   1.090   7.157   5.736
 4814WAT     H114844   1.027   7.087   5.717
 4814WAT     H214845   1.102   7.201   5.652
 4815WAT      O14846   0.550   4.479   4.227
 4815WAT     H114847   0.502   4.396   4.226
 4815WAT     H214848   0.600   4.478   4.145
 4816WAT      O14849   2.725   7.051   4.250
 4816WAT     H114850   2.665   7.116   4.213
 4816WAT     H214851   2.807   7.064   4.203
 4817WAT      O14852   3.110   5.853   4.353
 4817WAT     H114853   3.163   5.776   4.373
 4817WAT     H214854   3.174   5.919   4.323
 4818WAT      O14855   3.532   6.049   2.676
 4818WAT     H114856   3.444   6.083   2.695
 4818WAT     H214857   3.523   6.006   2.591
 4819WAT      O14858   0.551   1.925   1.296
 4819WAT     H114859   0.482   1.956   1.237
 4819WAT     H214860   0.626   1.982   1.278
 4820WAT      O14861   4.448   6.207   1.390
 4820WAT     H114862   4.446   6.118   1.425
 4820WAT     H214863   4.418   6.197   1.300
 4821WAT      O14864   2.785   4.117   0.660
 4821WAT     H114865   2.764   4.198   0.612
 4821WAT     H214866   2.874   4.095   0.631
 4822WAT      O14867   3.433   6.731   3.458
 4822WAT     H114868   3.448   6.757   3.367
 4822WAT     H214869   3.366   6.663   3.452
 4823WAT      O14870   6.755   3.648   4.111
 4823WAT     H114871   6.841   3.629   4.074
 4823WAT     H214872   6.694   3.595   4.059
 4824WAT      O14873   3.592   1.300   0.250
 4824WAT     H114874   3.604   1.334   0.339
 4824WAT     H214875   3.529   1.359   0.210
 4825WAT      O14876   4.812   6.503   3.144
 4825WAT     H114877   4.791   6.426   3.090
 4825WAT     H214878   4.905   6.519   3.128
 4826WAT      O14879   5.739   3.493   4.430
 4826WAT     H114880   5.713   3.462   4.517
 4826WAT     H214881   5.657   3.493   4.380
 4827WAT      O14882   0.664   0.248   5.110
 4827WAT     H114883   0.755   0.238   5.084
 4827WAT     H214884   0.615   0.197   5.045
 4828WAT      O14885   6.333   1.352   1.971
 4828WAT     H114886   6.344   1.257   1.976
 4828WAT     H214887   6.239   1.366   1.969
 4829WAT      O14888   3.700   5.595   5.884
 4829WAT     H114889   3.620   5.566   5.928
 4829WAT     H214890   3.686   5.688   5.867
 4830WAT      O14891   6.445   6.980   6.150
 4830WAT     H114892   6.409   7.051   6.204
 4830WAT     H214893   6.375   6.961   6.087
 4831WAT      O14894   6.051   0.838   2.943
 4831WAT     H114895   6.061   0.849   2.849
 4831WAT     H214896   5.974   0.782   2.953
 4832WAT      O14897   6.222   2.277   5.178
 4832WAT     H114898   6.165   2.287   5.102
 4832WAT     H214899   6.178   2.325   5.248
 4833WAT      O14900   7.224   6.453   4.332
 4833WAT     H114901   7.155   6.460   4.398
 4833WAT     H214902   7.300   6.420   4.380
 4834WAT      O14903   4.481   5.082   3.316
 4834WAT     H114904   4.420   5.053   3.384
 4834WAT     H214905   4.461   5.025   3.241
 4835WAT      O14906   1.852   1.062   3.591
 4835WAT     H114907   1.772   1.103   3.558
 4835WAT     H214908   1.844   0.970   3.565
 4836WAT      O14909   4.262   0.222   5.617
 4836WAT     H114910   4.310   0.304   5.620
 4836WAT     H214911   4.281   0.180   5.701
 4837WAT      O14912   1.571   0.589   1.488
 4837WAT     H114913   1.615   0.643   1.423
 4837WAT     H214914   1.500   0.546   1.441
 4838WAT      O14915   2.520   3.460   4.424
 4838WAT     H114916   2.549   3.369   4.420
 4838WAT     H214917   2.558   3.501   4.346
 4839WAT      O14918   6.996   2.973   3.765
 4839WAT     H114919   7.034   2.888   3.788
 4839WAT     H214920   6.997   3.022   3.848
 4840WAT      O14921   6.772   0.672   3.826
 4840WAT     H114922   6.679   0.695   3.825
 4840WAT     H214923   6.782   0.616   3.903
 4841WAT      O14924   1.766   0.929   5.288
 4841WAT     H114925   1.689   0.916   5.233
 4841WAT     H214926   1.775   1.024   5.295
 4842WAT      O14927   6.563   1.940   3.327
 4842WAT     H114928   6.616   1.967   3.252
 4842WAT     H214929   6.490   1.890   3.288
 4843WAT      O14930   1.688   2.202   3.351
 4843WAT     H114931   1.777   2.206   3.315
 4843WAT     H214932   1.702   2.193   3.446
 4844WAT      O14933   7.032   6.145   4.570
 4844WAT     H114934   7.027   6.088   4.647
 4844WAT     H214935   7.067   6.089   4.501
 4845WAT      O14936   5.576   4.439   4.464
 4845WAT     H114937   5.523   4.519   4.477
 4845WAT     H214938   5.666   4.468   4.476
 4846WAT      O14939   6.696   5.626   1.170
 4846WAT     H114940   6.622   5.592   1.119
 4846WAT     H214941   6.773   5.595   1.124
 4847WAT      O14942   0.861   0.694   3.774
 4847WAT     H114943   0.850   0.606   3.810
 4847WAT     H214944   0.866   0.751   3.850
 4848WAT      O14945   2.207   3.847   6.132
 4848WAT     H114946   2.234   3.777   6.191
 4848WAT     H214947   2.289   3.894   6.112
 4849WAT      O14948   3.480   1.346   1.658
 4849WAT     H114949   3.559   1.344   1.604
 4849WAT     H214950   3.414   1.302   1.604
 4850WAT      O14951   0.360   6.598   0.031
 4850WAT     H114952   0.438   6.591  -0.024
 4850WAT     H214953   0.392   6.580   0.120
 4851WAT      O14954   0.099   5.031   1.293
 4851WAT     H114955   0.048   4.987   1.225
 4851WAT     H214956   0.177   5.064   1.247
 4852WAT      O14957   0.770   2.365   3.483
 4852WAT     H114958   0.730   2.452   3.493
 4852WAT     H214959   0.751   2.341   3.392
 4853WAT      O14960   4.792   3.065   4.544
 4853WAT     H114961   4.734   3.140   4.556
 4853WAT     H214962   4.857   3.094   4.480
 4854WAT      O14963   3.126   1.074   6.139
 4854WAT     H114964   3.122   0.982   6.164
 4854WAT     H214965   3.111   1.075   6.045
 4855WAT      O14966   7.307   6.484   2.079
 4855WAT     H114967   7.245   6.497   2.008
 4855WAT     H214968   7.314   6.571   2.120
 4856WAT      O14969   3.980   4.355   4.631
 4856WAT     H114970   3.994   4.279   4.575
 4856WAT     H214971   3.974   4.429   4.571
 4857WAT      O14972   2.202   4.476   0.098
 4857WAT     H114973   2.291   4.507   0.076
 4857WAT     H214974   2.145   4.525   0.039
 4858WAT      O14975   4.555   4.415   1.533
 4858WAT     H114976   4.492   4.476   1.493
 4858WAT     H214977   4.637   4.431   1.487
 4859WAT      O14978   3.711   5.802   2.517
 4859WAT     H114979   3.684   5.807   2.608
 4859WAT     H214980   3.632   5.822   2.467
 4860WAT      O14981   7.468   2.399   0.150
 4860WAT     H114982   7.442   2.474   0.096
 4860WAT     H214983   7.408   2.329   0.125
 4861WAT      O14984   4.032   0.837   0.620
 4861WAT     H114985   3.945   0.860   0.587
 4861WAT     H214986   4.057   0.759   0.570
 4862WAT      O14987   6.493   5.283   1.494
 4862WAT     H114988   6.416   5.273   1.549
 4862WAT     H214989   6.459   5.303   1.407
 4863WAT      O14990   6.991   3.147   3.985
 4863WAT     H114991   7.075   3.190   3.998
 4863WAT     H214992   6.944   3.158   4.068
 4864WAT      O14993   1.342   4.966   4.860
 4864WAT     H114994   1.274   4.937   4.921
 4864WAT     H214995   1.296   5.024   4.799
 4865WAT      O14996   5.871   0.542   5.376
 4865WAT     H114997   5.806   0.516   5.311
 4865WAT     H214998   5.914   0.618   5.338
 4866WAT      O14999   2.466   3.337   1.930
 4866WAT     H115000   2.397   3.394   1.964
 4866WAT     H215001   2.545   3.391   1.931
 4867WAT      O15002   7.408   3.399   1.898
 4867WAT     H115003   7.349   3.461   1.856
 4867WAT     H215004   7.369   3.382   1.983
 4868WAT      O15005   7.275   2.820   1.783
 4868WAT     H115006   7.343   2.755   1.767
 4868WAT     H215007   7.308   2.873   1.856
 4869WAT      O15008   6.424   5.187   2.445
 4869WAT     H115009   6.488   5.251   2.414
 4869WAT     H215010   6.413   5.206   2.538
 4870WAT      O15011   4.578   1.230   2.169
 4870WAT     H115012   4.524   1.284   2.111
 4870WAT     H215013   4.611   1.291   2.235
 4871WAT      O15014   2.606   1.805   4.612
 4871WAT     H115015   2.516   1.817   4.642
 4871WAT     H215016   2.648   1.890   4.626
 4872WAT      O15017   6.266   0.608   1.380
 4872WAT     H115018   6.225   0.538   1.432
 4872WAT     H215019   6.258   0.686   1.436
 4873WAT      O15020   0.010   4.257   2.514
 4873WAT     H115021  -0.055   4.327   2.520
 4873WAT     H215022  -0.014   4.208   2.435
 4874WAT      O15023   4.296   4.525   2.151
 4874WAT     H115024   4.278   4.492   2.064
 4874WAT     H215025   4.387   4.555   2.148
 4875WAT      O15026   1.516   6.466   5.474
 4875WAT     H115027   1.600   6.485   5.516
 4875WAT     H215028   1.526   6.377   5.440
 4876WAT      O15029   1.272   2.975   5.181
 4876WAT     H115030   1.333   3.005   5.113
 4876WAT     H215031   1.238   2.892   5.148
 4877WAT      O15032   6.569   2.846   1.709
 4877WAT     H115033   6.594   2.923   1.658
 4877WAT     H215034   6.647   2.790   1.708
 4878WAT      O15035   5.759   6.675   0.335
 4878WAT     H115036   5.707   6.717   0.267
 4878WAT     H215037   5.831   6.633   0.287
 4879WAT      O15038   5.141   4.835   5.740
 4879WAT     H115039   5.222   4.885   5.750
 4879WAT     H215040   5.123   4.837   5.646
 4880WAT      O15041   5.287   1.146   2.739
 4880WAT     H115042   5.271   1.237   2.716
 4880WAT     H215043   5.244   1.134   2.824
 4881WAT      O15044   1.900   4.917   1.648
 4881WAT     H115045   1.933   4.906   1.737
 4881WAT     H215046   1.837   4.846   1.637
 4882WAT      O15047   2.345   4.177   4.751
 4882WAT     H115048   2.427   4.218   4.723
 4882WAT     H215049   2.324   4.116   4.681
 4883WAT      O15050   2.399   1.970   2.400
 4883WAT     H115051   2.428   2.016   2.321
 4883WAT     H215052   2.305   1.984   2.402
 4884WAT      O15053   3.742   2.142   3.390
 4884WAT     H115054   3.685   2.104   3.323
 4884WAT     H215055   3.766   2.228   3.355
 4885WAT      O15056   4.723   2.159   6.224
 4885WAT     H115057   4.629   2.145   6.215
 4885WAT     H215058   4.762   2.105   6.155
 4886WAT      O15059   7.230   3.186   4.818
 4886WAT     H115060   7.152   3.153   4.863
 4886WAT     H215061   7.228   3.143   4.733
 4887WAT      O15062   4.378   3.448   0.086
 4887WAT     H115063   4.445   3.444   0.154
 4887WAT     H215064   4.332   3.531   0.102
 4888WAT      O15065   0.946   5.484   5.733
 4888WAT     H115066   0.917   5.439   5.653
 4888WAT     H215067   1.029   5.525   5.709
 4889WAT      O15068   2.891   1.863   5.057
 4889WAT     H115069   2.959   1.883   4.993
 4889WAT     H215070   2.873   1.945   5.101
 4890WAT      O15071   3.769   5.203   3.674
 4890WAT     H115072   3.760   5.150   3.595
 4890WAT     H215073   3.700   5.172   3.733
 4891WAT      O15074   2.364   2.550   4.085
 4891WAT     H115075   2.411   2.507   4.014
 4891WAT     H215076   2.278   2.571   4.047
 4892WAT      O15077   6.781   3.712   2.567
 4892WAT     H115078   6.763   3.722   2.474
 4892WAT     H215079   6.727   3.639   2.595
 4893WAT      O15080   0.614   6.237   1.711
 4893WAT     H115081   0.656   6.154   1.736
 4893WAT     H215082   0.658   6.263   1.630
 4894WAT      O15083   6.782   6.290   5.809
 4894WAT     H115084   6.820   6.203   5.824
 4894WAT     H215085   6.711   6.274   5.747
 4895WAT      O15086   5.302   0.962   0.547
 4895WAT     H115087   5.283   0.876   0.507
 4895WAT     H215088   5.329   1.016   0.473
 4896WAT      O15089   2.950   0.195   2.824
 4896WAT     H115090   2.933   0.111   2.865
 4896WAT     H215091   2.957   0.175   2.731
 4897WAT      O15092   0.781   3.809   5.753
 4897WAT     H115093   0.703   3.846   5.711
 4897WAT     H215094   0.854   3.838   5.698
 4898WAT      O15095   4.448   1.952   1.451
 4898WAT     H115096   4.526   2.005   1.468
 4898WAT     H215097   4.385   2.013   1.414
 4899WAT      O15098   6.920   1.735   5.586
 4899WAT     H115099   6.982   1.801   5.555
 4899WAT     H215100   6.895   1.687   5.507
 4900WAT      O15101   3.710   6.650   1.269
 4900WAT     H115102   3.703   6.703   1.190
 4900WAT     H215103   3.757   6.571   1.241
 4901WAT      O15104   4.671   5.933   2.899
 4901WAT     H115105   4.648   5.990   2.825
 4901WAT     H215106   4.612   5.858   2.891
 4902WAT      O15107   1.275   0.585   2.205
 4902WAT     H115108   1.289   0.491   2.215
 4902WAT     H215109   1.346   0.614   2.147
 4903WAT      O15110   6.790   4.104   2.874
 4903WAT     H115111   6.881   4.113   2.846
 4903WAT     H215112   6.764   4.018   2.842
 4904WAT      O15113   6.348   5.103   0.570
 4904WAT     H115114   6.338   5.153   0.489
 4904WAT     H215115   6.416   5.039   0.550
 4905WAT      O15116   5.905   4.176   3.675
 4905WAT     H115117   5.969   4.239   3.709
 4905WAT     H215118   5.943   4.146   3.593
 4906WAT      O15119   0.096   4.512   2.316
 4906WAT     H115120   0.159   4.440   2.312
 4906WAT     H215121   0.143   4.584   2.358
 4907WAT      O15122   4.785   5.038   2.977
 4907WAT     H115123   4.689   5.040   2.969
 4907WAT     H215124   4.814   4.988   2.901
 4908WAT      O15125   3.695   2.636   3.351
 4908WAT     H115126   3.748   2.560   3.373
 4908WAT     H215127   3.624   2.636   3.416
 4909WAT      O15128   3.759   3.020   5.024
 4909WAT     H115129   3.726   3.104   5.057
 4909WAT     H215130   3.683   2.978   4.985
 4910WAT      O15131   6.269   5.428   2.017
 4910WAT     H115132   6.307   5.493   1.958
 4910WAT     H215133   6.290   5.344   1.978
 4911WAT      O15134   7.424   4.122   0.519
 4911WAT     H115135   7.344   4.072   0.504
 4911WAT     H215136   7.495   4.063   0.493
 4912WAT      O15137   4.789   4.153   4.938
 4912WAT     H115138   4.874   4.196   4.950
 4912WAT     H215139   4.757   4.185   4.854
 4913WAT      O15140   6.142   5.290   2.469
 4913WAT     H115141   6.164   5.364   2.527
 4913WAT     H215142   6.211   5.226   2.485
 4914WAT      O15143   1.005   2.859   5.614
 4914WAT     H115144   1.046   2.850   5.700
 4914WAT     H215145   1.074   2.896   5.559
 4915WAT      O15146   3.067   5.187   0.541
 4915WAT     H115147   3.096   5.221   0.457
 4915WAT     H215148   2.991   5.134   0.520
 4916WAT      O15149   6.902   0.957   1.263
 4916WAT     H115150   6.826   0.911   1.300
 4916WAT     H215151   6.960   0.973   1.337
 4917WAT      O15152   6.812   7.192   2.337
 4917WAT     H115153   6.731   7.162   2.297
 4917WAT     H215154   6.821   7.283   2.307
 4918WAT      O15155   4.604   2.136   1.745
 4918WAT     H115156   4.512   2.117   1.725
 4918WAT     H215157   4.645   2.149   1.660
 4919WAT      O15158   0.771   6.375   4.474
 4919WAT     H115159   0.839   6.308   4.472
 4919WAT     H215160   0.737   6.372   4.564
 4920WAT      O15161   3.274   0.898   3.642
 4920WAT     H115162   3.354   0.931   3.683
 4920WAT     H215163   3.292   0.806   3.624
 4921WAT      O15164   7.573   4.514   0.641
 4921WAT     H115165   7.521   4.550   0.570
 4921WAT     H215166   7.661   4.547   0.625
 4922WAT      O15167   2.981   4.168   4.840
 4922WAT     H115168   2.997   4.146   4.748
 4922WAT     H215169   2.939   4.254   4.838
 4923WAT      O15170   6.012   2.976   1.116
 4923WAT     H115171   5.928   2.932   1.102
 4923WAT     H215172   6.057   2.969   1.031
 4924WAT      O15173   5.203   0.501   1.853
 4924WAT     H115174   5.238   0.584   1.885
 4924WAT     H215175   5.240   0.491   1.766
 4925WAT      O15176   1.208   2.621   1.094
 4925WAT     H115177   1.143   2.550   1.098
 4925WAT     H215178   1.284   2.586   1.140
 4926WAT      O15179   6.506   7.188   5.882
 4926WAT     H115180   6.447   7.134   5.935
 4926WAT     H215181   6.582   7.131   5.866
 4927WAT      O15182   4.219   5.945   3.625
 4927WAT     H115183   4.275   5.875   3.593
 4927WAT     H215184   4.208   6.004   3.550
 4928WAT      O15185   4.832   1.892   3.900
 4928WAT     H115186   4.893   1.952   3.944
 4928WAT     H215187   4.782   1.948   3.840
 4929WAT      O15188   3.477   3.189   3.344
 4929WAT     H115189   3.536   3.261   3.325
 4929WAT     H215190   3.474   3.138   3.263
 4930WAT      O15191   6.398   5.765   5.907
 4930WAT     H115192   6.436   5.678   5.903
 4930WAT     H215193   6.380   5.788   5.816
 4931WAT      O15194   6.824   5.550   5.162
 4931WAT     H115195   6.832   5.621   5.226
 4931WAT     H215196   6.771   5.586   5.092
 4932WAT      O15197   5.312   2.260   2.743
 4932WAT     H115198   5.267   2.285   2.663
 4932WAT     H215199   5.399   2.231   2.714
 4933WAT      O15200   1.929   3.680   4.813
 4933WAT     H115201   1.960   3.595   4.844
 4933WAT     H215202   2.005   3.718   4.769
 4934WAT      O15203   3.378   3.704   4.820
 4934WAT     H115204   3.301   3.679   4.769
 4934WAT     H215205   3.397   3.794   4.792
 4935WAT      O15206   2.526   2.749   5.816
 4935WAT     H115207   2.608   2.796   5.831
 4935WAT     H215208   2.494   2.729   5.904
 4936WAT      O15209   3.155   6.801   1.346
 4936WAT     H115210   3.066   6.774   1.326
 4936WAT     H215211   3.206   6.720   1.347
 4937WAT      O15212   3.396   4.859   4.319
 4937WAT     H115213   3.318   4.834   4.271
 4937WAT     H215214   3.366   4.875   4.408
 4938WAT      O15215   3.147   3.569   0.069
 4938WAT     H115216   3.097   3.514   0.130
 4938WAT     H215217   3.228   3.520   0.053
 4939WAT      O15218   3.780   3.519   3.973
 4939WAT     H115219   3.702   3.570   3.993
 4939WAT     H215220   3.747   3.441   3.927
 4940WAT      O15221   1.698   4.645   5.932
 4940WAT     H115222   1.618   4.633   5.881
 4940WAT     H215223   1.733   4.556   5.943
 4941WAT      O15224   5.925   4.814   5.662
 4941WAT     H115225   6.019   4.797   5.656
 4941WAT     H215226   5.886   4.766   5.589
 4942WAT      O15227   1.388   1.451   2.674
 4942WAT     H115228   1.440   1.457   2.594
 4942WAT     H215229   1.338   1.533   2.677
 4943WAT      O15230   6.331   3.365   2.088
 4943WAT     H115231   6.379   3.344   2.008
 4943WAT     H215232   6.321   3.281   2.133
 4944WAT      O15233   1.762   5.680   0.930
 4944WAT     H115234   1.842   5.628   0.921
 4944WAT     H215235   1.732   5.662   1.019
 4945WAT      O15236   1.381   2.892   1.766
 4945WAT     H115237   1.351   2.822   1.709
 4945WAT     H215238   1.399   2.965   1.707
 4946WAT      O15239   5.823   0.438   1.060
 4946WAT     H115240   5.916   0.454   1.073
 4946WAT     H215241   5.784   0.449   1.147
 4947WAT      O15242   4.256   1.364   2.204
 4947WAT     H115243   4.221   1.278   2.179
 4947WAT     H215244   4.312   1.389   2.131
 4948WAT      O15245   7.313   0.366   5.776
 4948WAT     H115246   7.250   0.371   5.848
 4948WAT     H215247   7.275   0.422   5.708
 4949WAT      O15248   1.515   3.418   2.901
 4949WAT     H115249   1.529   3.352   2.832
 4949WAT     H215250   1.592   3.475   2.894
 4950WAT      O15251   7.097   5.711   4.925
 4950WAT     H115252   7.003   5.719   4.940
 4950WAT     H215253   7.136   5.723   5.012
 4951WAT      O15254   4.200   1.863   6.149
 4951WAT     H115255   4.256   1.791   6.119
 4951WAT     H215256   4.261   1.930   6.180
 4952WAT      O15257   4.201   1.816   1.279
 4952WAT     H115258   4.205   1.754   1.207
 4952WAT     H215259   4.222   1.901   1.240
 4953WAT      O15260   4.143   3.928   5.072
 4953WAT     H115261   4.093   3.960   4.996
 4953WAT     H215262   4.223   3.980   5.072
 4954WAT      O15263   1.587   6.246   4.992
 4954WAT     H115264   1.621   6.251   4.902
 4954WAT     H215265   1.557   6.335   5.011
 4955WAT      O15266   7.335   0.021   1.976
 4955WAT     H115267   7.253   0.070   1.966
 4955WAT     H215268   7.389   0.050   1.903
 4956WAT      O15269   3.579   4.400   3.028
 4956WAT     H115270   3.541   4.488   3.031
 4956WAT     H215271   3.634   4.394   3.106
 4957WAT      O15272   0.198   4.739   6.167
 4957WAT     H115273   0.223   4.828   6.191
 4957WAT     H215274   0.126   4.749   6.105
 4958WAT      O15275   5.460   3.337   5.901
 4958WAT     H115276   5.537   3.391   5.883
 4958WAT     H215277   5.404   3.348   5.825
 4959WAT      O15278   4.425   1.957   0.088
 4959WAT     H115279   4.518   1.975   0.100
 4959WAT     H215280   4.406   1.986  -0.001
 4960WAT      O15281   1.295   1.626   5.100
 4960WAT     H115282   1.327   1.643   5.188
 4960WAT     H215283   1.201   1.609   5.111
 4961WAT      O15284   5.029   0.130   2.865
 4961WAT     H115285   4.979   0.212   2.864
 4961WAT     H215286   5.107   0.149   2.812
 4962WAT      O15287   5.886   2.482   6.120
 4962WAT     H115288   5.971   2.438   6.117
 4962WAT     H215289   5.885   2.539   6.044
 4963WAT      O15290   1.207   1.385   2.904
 4963WAT     H115291   1.281   1.442   2.883
 4963WAT     H215292   1.135   1.444   2.923
 4964WAT      O15293   0.020   2.181   4.846
 4964WAT     H115294   0.065   2.116   4.793
 4964WAT     H215295  -0.014   2.245   4.782
 4965WAT      O15296   2.491   2.293   2.566
 4965WAT     H115297   2.485   2.385   2.589
 4965WAT     H215298   2.440   2.285   2.485
 4966WAT      O15299   0.258   2.307   3.768
 4966WAT     H115300   0.327   2.373   3.759
 4966WAT     H215301   0.256   2.262   3.684
 4967WAT      O15302   0.275   6.762   4.272
 4967WAT     H115303   0.364   6.760   4.307
 4967WAT     H215304   0.261   6.675   4.237
 4968WAT      O15305   0.094   3.862   3.946
 4968WAT     H115306   0.080   3.949   3.908
 4968WAT     H215307   0.189   3.858   3.961
 4969WAT      O15308   3.693   0.129   1.676
 4969WAT     H115309   3.722   0.149   1.587
 4969WAT     H215310   3.645   0.047   1.667
 4970WAT      O15311   4.824   5.175   5.904
 4970WAT     H115312   4.784   5.135   5.981
 4970WAT     H215313   4.840   5.266   5.930
 4971WAT      O15314   2.237   5.188   5.331
 4971WAT     H115315   2.195   5.195   5.245
 4971WAT     H215316   2.304   5.256   5.331
 4972WAT      O15317   0.617   4.920   5.919
 4972WAT     H115318   0.525   4.897   5.930
 4972WAT     H215319   0.617   5.013   5.898
 4973WAT      O15320   7.440   3.686   3.718
 4973WAT     H115321   7.404   3.762   3.764
 4973WAT     H215322   7.429   3.708   3.625
 4974WAT      O15323   1.400   4.691   4.367
 4974WAT     H115324   1.393   4.784   4.385
 4974WAT     H215325   1.432   4.687   4.277
 4975WAT      O15326   2.296   5.174   0.836
 4975WAT     H115327   2.310   5.209   0.924
 4975WAT     H215328   2.235   5.101   0.850
 4976WAT      O15329   2.081   0.248   4.339
 4976WAT     H115330   2.033   0.330   4.351
 4976WAT     H215331   2.021   0.192   4.288
 4977WAT      O15332   0.264   5.301   2.427
 4977WAT     H115333   0.305   5.388   2.417
 4977WAT     H215334   0.255   5.269   2.337
 4978WAT      O15335   2.808   4.632   5.381
 4978WAT     H115336   2.746   4.563   5.405
 4978WAT     H215337   2.764   4.682   5.313
 4979WAT      O15338   3.756   5.225   4.404
 4979WAT     H115339   3.706   5.306   4.397
 4979WAT     H215340   3.839   5.252   4.444
 4980WAT      O15341   7.102   2.905   2.260
 4980WAT     H115342   7.112   2.854   2.340
 4980WAT     H215343   7.069   2.843   2.195
 4981WAT      O15344   7.145   4.575   2.246
 4981WAT     H115345   7.097   4.498   2.217
 4981WAT     H215346   7.083   4.648   2.236
 4982WAT      O15347   4.809   6.685   2.886
 4982WAT     H115348   4.901   6.660   2.875
 4982WAT     H215349   4.760   6.616   2.841
 4983WAT      O15350   6.469   1.578   2.049
 4983WAT     H115351   6.542   1.602   1.992
 4983WAT     H215352   6.431   1.500   2.008
 4984WAT      O15353   5.645   6.532   5.182
 4984WAT     H115354   5.671   6.582   5.105
 4984WAT     H215355   5.721   6.479   5.204
 4985WAT      O15356   2.367   2.910   2.411
 4985WAT     H115357   2.409   2.962   2.342
 4985WAT     H215358   2.339   2.829   2.367
 4986WAT      O15359   1.127   1.007   1.735
 4986WAT     H115360   1.135   0.971   1.823
 4986WAT     H215361   1.033   1.019   1.722
 4987WAT      O15362   3.089   1.291   0.806
 4987WAT     H115363   2.997   1.313   0.792
 4987WAT     H215364   3.110   1.229   0.736
 4988WAT      O15365   6.858   2.871   3.010
 4988WAT     H115366   6.910   2.926   3.069
 4988WAT     H215367   6.866   2.913   2.925
 4989WAT      O15368   6.126   1.686   1.873
 4989WAT     H115369   6.154   1.695   1.964
 4989WAT     H215370   6.208   1.683   1.822
 4990WAT      O15371   6.100   5.696   5.289
 4990WAT     H115372   6.042   5.639   5.339
 4990WAT     H215373   6.052   5.715   5.209
 4991WAT      O15374   0.282   5.799   2.076
 4991WAT     H115375   0.229   5.858   2.022
 4991WAT     H215376   0.358   5.779   2.022
 4992WAT      O15377   6.458   3.414   3.221
 4992WAT     H115378   6.552   3.401   3.209
 4992WAT     H215379   6.418   3.374   3.144
 4993WAT      O15380   0.345   1.440   1.028
 4993WAT     H115381   0.418   1.496   1.056
 4993WAT     H215382   0.360   1.427   0.934
 4994WAT      O15383   2.527   4.232   0.017
 4994WAT     H115384   2.521   4.168  -0.054
 4994WAT     H215385   2.439   4.235   0.054
 4995WAT      O15386   5.431   3.256   1.637
 4995WAT     H115387   5.506   3.261   1.696
 4995WAT     H215388   5.443   3.173   1.590
 4996WAT      O15389   7.550   5.944   1.818
 4996WAT     H115390   7.514   5.858   1.840
 4996WAT     H215391   7.481   5.986   1.767
 4997WAT      O15392   5.748   4.909   3.946
 4997WAT     H115393   5.732   4.816   3.927
 4997WAT     H215394   5.805   4.907   4.023
 4998WAT      O15395   4.068   6.360   1.346
 4998WAT     H115396   3.980   6.344   1.310
 4998WAT     H215397   4.126   6.356   1.270
 4999WAT      O15398   6.313   0.879   1.894
 4999WAT     H115399   6.356   0.898   1.811
 4999WAT     H215400   6.266   0.797   1.879
 5000WAT      O15401   6.488   6.938   3.939
 5000WAT     H115402   6.560   7.001   3.943
 5000WAT     H215403   6.513   6.879   3.868
 5001WAT      O15404   3.602   3.312   3.838
 5001WAT     H115405   3.533   3.264   3.884
 5001WAT     H215406   3.633   3.251   3.771
 5002WAT      O15407   1.615   0.845   0.480
 5002WAT     H115408   1.622   0.787   0.404
 5002WAT     H215409   1.698   0.892   0.483
 5003WAT      O15410   0.689   0.580   2.992
 5003WAT     H115411   0.749   0.655   3.000
 5003WAT     H215412   0.605   0.620   2.971
 5004WAT      O15413   3.637   2.861   3.237
 5004WAT     H115414   3.674   2.778   3.265
 5004WAT     H215415   3.659   2.867   3.144
 5005WAT      O15416   3.664   5.900   4.816
 5005WAT     H115417   3.724   5.853   4.758
 5005WAT     H215418   3.603   5.944   4.757
 5006WAT      O15419   5.566   1.265   0.505
 5006WAT     H115420   5.599   1.180   0.476
 5006WAT     H215421   5.522   1.301   0.428
 5007WAT      O15422   4.094   2.712   2.417
 5007WAT     H115423   4.065   2.768   2.345
 5007WAT     H215424   4.182   2.685   2.393
 5008WAT      O15425   7.106   4.157   4.802
 5008WAT     H115426   7.142   4.173   4.889
 5008WAT     H215427   7.011   4.170   4.813
 5009WAT      O15428   5.314   2.147   4.647
 5009WAT     H115429   5.309   2.187   4.560
 5009WAT     H215430   5.261   2.205   4.703
 5010WAT      O15431   0.438   3.338   4.453
 5010WAT     H115432   0.383   3.405   4.492
 5010WAT     H215433   0.390   3.256   4.466
 5011WAT      O15434   2.480   2.140   5.109
 5011WAT     H115435   2.420   2.201   5.150
 5011WAT     H215436   2.439   2.117   5.025
 5012WAT      O15437   6.111   6.339   3.372
 5012WAT     H115438   6.022   6.337   3.405
 5012WAT     H215439   6.122   6.426   3.335
 5013WAT      O15440   5.359   1.457   0.276
 5013WAT     H115441   5.410   1.466   0.196
 5013WAT     H215442   5.352   1.547   0.310
 5014WAT      O15443   7.090   0.229   3.080
 5014WAT     H115444   7.162   0.169   3.063
 5014WAT     H215445   7.116   0.310   3.036
 5015WAT      O15446   1.361   2.682   3.540
 5015WAT     H115447   1.283   2.734   3.558
 5015WAT     H215448   1.336   2.626   3.466
 5016WAT      O15449   0.956   5.926   5.613
 5016WAT     H115450   0.970   5.859   5.546
 5016WAT     H215451   0.861   5.927   5.625
 5017WAT      O15452   3.052   4.344   5.321
 5017WAT     H115453   2.989   4.283   5.360
 5017WAT     H215454   3.028   4.429   5.357
 5018WAT      O15455   3.827   1.597   1.248
 5018WAT     H115456   3.762   1.659   1.281
 5018WAT     H215457   3.780   1.514   1.239
 5019WAT      O15458   2.601   0.471   0.168
 5019WAT     H115459   2.522   0.418   0.156
 5019WAT     H215460   2.655   0.420   0.228
 5020WAT      O15461   4.627   5.281   1.521
 5020WAT     H115462   4.699   5.219   1.505
 5020WAT     H215463   4.592   5.298   1.434
 5021WAT      O15464   5.825   6.401   4.134
 5021WAT     H115465   5.870   6.463   4.077
 5021WAT     H215466   5.746   6.376   4.086
 5022WAT      O15467   6.702   1.029   3.282
 5022WAT     H115468   6.633   1.046   3.217
 5022WAT     H215469   6.765   1.099   3.267
 5023WAT      O15470   0.760   4.954   2.810
 5023WAT     H115471   0.855   4.958   2.803
 5023WAT     H215472   0.733   4.898   2.737
 5024WAT      O15473   3.454   4.584   4.375
 5024WAT     H115474   3.491   4.618   4.294
 5024WAT     H215475   3.373   4.541   4.349
 5025WAT      O15476   0.839   1.291   0.978
 5025WAT     H115477   0.816   1.277   0.886
 5025WAT     H215478   0.768   1.252   1.027
 5026WAT      O15479   5.965   0.596   4.405
 5026WAT     H115480   5.940   0.675   4.358
 5026WAT     H215481   6.030   0.554   4.348
 5027WAT      O15482   3.878   1.928   4.902
 5027WAT     H115483   3.930   1.968   4.833
 5027WAT     H215484   3.793   1.910   4.861
 5028WAT      O15485   1.396   1.103   1.945
 5028WAT     H115486   1.347   1.022   1.937
 5028WAT     H215487   1.349   1.153   2.011
 5029WAT      O15488   6.285   5.352   0.722
 5029WAT     H115489   6.310   5.260   0.710
 5029WAT     H215490   6.350   5.401   0.671
 5030WAT      O15491   3.587   2.949   0.323
 5030WAT     H115492   3.574   2.946   0.228
 5030WAT     H215493   3.511   2.998   0.355
 5031WAT      O15494   2.302   2.077   4.361
 5031WAT     H115495   2.310   2.109   4.270
 5031WAT     H215496   2.210   2.090   4.382
 5032WAT      O15497   7.635   3.923   5.106
 5032WAT     H115498   7.613   3.882   5.189
 5032WAT     H215499   7.603   4.013   5.114
 5033WAT      O15500   6.795   3.388   5.366
 5033WAT     H115501   6.822   3.419   5.279
 5033WAT     H215502   6.718   3.334   5.349
 5034WAT      O15503   3.455   0.290   6.014
 5034WAT     H115504   3.525   0.236   5.977
 5034WAT     H215505   3.457   0.371   5.961
 5035WAT      O15506   3.595   6.411   5.722
 5035WAT     H115507   3.649   6.386   5.647
 5035WAT     H215508   3.628   6.497   5.747
 5036WAT      O15509   3.876   3.129   1.413
 5036WAT     H115510   3.880   3.219   1.443
 5036WAT     H215511   3.915   3.130   1.326
 5037WAT      O15512   6.163   4.861   5.291
 5037WAT     H115513   6.219   4.837   5.217
 5037WAT     H215514   6.220   4.909   5.350
 5038WAT      O15515   6.417   2.764   5.236
 5038WAT     H115516   6.425   2.791   5.145
 5038WAT     H215517   6.433   2.670   5.236
 5039WAT      O15518   1.524   6.221   3.416
 5039WAT     H115519   1.499   6.286   3.350
 5039WAT     H215520   1.443   6.173   3.434
 5040WAT      O15521   6.891   5.510   1.043
 5040WAT     H115522   6.951   5.465   1.104
 5040WAT     H215523   6.876   5.446   0.973
 5041WAT      O15524   6.716   2.874   5.972
 5041WAT     H115525   6.810   2.855   5.970
 5041WAT     H215526   6.679   2.816   5.906
 5042WAT      O15527   1.519   2.495   5.356
 5042WAT     H115528   1.487   2.404   5.361
 5042WAT     H215529   1.490   2.525   5.270
 5043WAT      O15530   3.815   6.388   3.219
 5043WAT     H115531   3.740   6.329   3.219
 5043WAT     H215532   3.801   6.445   3.295
 5044WAT      O15533   7.331   2.607   5.342
 5044WAT     H115534   7.422   2.591   5.366
 5044WAT     H215535   7.314   2.546   5.270
 5045WAT      O15536   1.542   1.203   4.789
 5045WAT     H115537   1.541   1.208   4.693
 5045WAT     H215538   1.625   1.242   4.814
 5046WAT      O15539   6.564   4.772   5.966
 5046WAT     H115540   6.510   4.772   5.887
 5046WAT     H215541   6.645   4.728   5.939
 5047WAT      O15542   3.142   3.799   4.023
 5047WAT     H115543   3.229   3.823   4.057
 5047WAT     H215544   3.161   3.733   3.955
 5048WAT      O15545   1.818   3.945   0.261
 5048WAT     H115546   1.824   3.891   0.340
 5048WAT     H215547   1.733   3.988   0.268
 5049WAT      O15548   3.534   0.230   4.295
 5049WAT     H115549   3.546   0.138   4.271
 5049WAT     H215550   3.612   0.274   4.263
 5050WAT      O15551   5.591   0.803   3.464
 5050WAT     H115552   5.600   0.879   3.407
 5050WAT     H215553   5.578   0.729   3.405
 5051WAT      O15554   2.528   6.529   6.049
 5051WAT     H115555   2.593   6.495   5.988
 5051WAT     H215556   2.451   6.546   5.995
 5052WAT      O15557   0.335   4.799   5.145
 5052WAT     H115558   0.285   4.720   5.166
 5052WAT     H215559   0.426   4.769   5.140
 5053WAT      O15560   4.742   6.541   0.277
 5053WAT     H115561   4.662   6.491   0.260
 5053WAT     H215562   4.726   6.584   0.362
 5054WAT      O15563   0.273   3.678   3.008
 5054WAT     H115564   0.335   3.743   3.041
 5054WAT     H215565   0.322   3.630   2.942
 5055WAT      O15566   4.395   0.757   4.300
 5055WAT     H115567   4.401   0.665   4.274
 5055WAT     H215568   4.351   0.756   4.385
 5056WAT      O15569   0.577   5.085   2.085
 5056WAT     H115570   0.652   5.029   2.070
 5056WAT     H215571   0.501   5.027   2.078
 5057WAT      O15572   5.140   6.289   3.361
 5057WAT     H115573   5.204   6.232   3.404
 5057WAT     H215574   5.150   6.270   3.268
 5058WAT      O15575   1.379   0.849   2.281
 5058WAT     H115576   1.341   0.935   2.262
 5058WAT     H215577   1.450   0.840   2.217
 5059WAT      O15578   3.184   3.677   4.620
 5059WAT     H115579   3.211   3.614   4.553
 5059WAT     H215580   3.188   3.762   4.576
 5060WAT      O15581   1.316   4.732   2.393
 5060WAT     H115582   1.390   4.743   2.333
 5060WAT     H215583   1.324   4.642   2.425
 5061WAT      O15584   1.691   6.388   3.573
 5061WAT     H115585   1.770   6.387   3.519
 5061WAT     H215586   1.626   6.340   3.520
 5062WAT      O15587   7.501   6.698   4.751
 5062WAT     H115588   7.535   6.736   4.832
 5062WAT     H215589   7.554   6.739   4.682
 5063WAT      O15590   0.495   0.756   4.821
 5063WAT     H115591   0.485   0.845   4.786
 5063WAT     H215592   0.408   0.733   4.852
 5064WAT      O15593   6.654   7.076   0.286
 5064WAT     H115594   6.657   6.982   0.307
 5064WAT     H215595   6.573   7.086   0.235
 5065WAT      O15596   2.672   4.850   5.876
 5065WAT     H115597   2.730   4.836   5.800
 5065WAT     H215598   2.618   4.924   5.852
 5066WAT      O15599   0.473   4.533   0.429
 5066WAT     H115600   0.384   4.558   0.454
 5066WAT     H215601   0.474   4.437   0.437
 5067WAT      O15602   4.714   4.501   1.102
 5067WAT     H115603   4.653   4.445   1.054
 5067WAT     H215604   4.799   4.481   1.065
 5068WAT      O15605   5.036   3.819   0.230
 5068WAT     H115606   4.944   3.844   0.227
 5068WAT     H215607   5.084   3.901   0.237
 5069WAT      O15608   6.748   3.197   2.003
 5069WAT     H115609   6.779   3.277   2.046
 5069WAT     H215610   6.740   3.220   1.911
 5070WAT      O15611   0.600   6.695   2.209
 5070WAT     H115612   0.641   6.610   2.226
 5070WAT     H215613   0.609   6.708   2.115
 5071WAT      O15614   1.708   6.223   4.744
 5071WAT     H115615   1.708   6.226   4.648
 5071WAT     H215616   1.727   6.132   4.765
 5072WAT      O15617   2.353   5.262   1.108
 5072WAT     H115618   2.287   5.284   1.174
 5072WAT     H215619   2.379   5.173   1.130
 5073WAT      O15620   1.745   3.225   2.090
 5073WAT     H115621   1.819   3.251   2.035
 5073WAT     H215622   1.779   3.230   2.180
 5074WAT      O15623   0.809   2.227   5.433
 5074WAT     H115624   0.744   2.291   5.461
 5074WAT     H215625   0.772   2.188   5.354
 5075WAT      O15626   1.127   0.729   1.305
 5075WAT     H115627   1.181   0.793   1.259
 5075WAT     H215628   1.151   0.740   1.397
 5076WAT      O15629   6.908   6.121   0.419
 5076WAT     H115630   6.849   6.159   0.353
 5076WAT     H215631   6.852   6.101   0.493
 5077WAT      O15632   7.171   4.520   3.044
 5077WAT     H115633   7.182   4.604   3.088
 5077WAT     H215634   7.260   4.489   3.030
 5078WAT      O15635   7.172   4.566   0.485
 5078WAT     H115636   7.166   4.470   0.480
 5078WAT     H215637   7.139   4.596   0.401
 5079WAT      O15638   2.661   6.556   0.387
 5079WAT     H115639   2.611   6.601   0.319
 5079WAT     H215640   2.670   6.466   0.356
 5080WAT      O15641   1.154   0.799   2.425
 5080WAT     H115642   1.225   0.754   2.379
 5080WAT     H215643   1.198   0.849   2.494
 5081WAT      O15644   3.086   2.842   0.726
 5081WAT     H115645   3.125   2.903   0.665
 5081WAT     H215646   2.992   2.861   0.722
 5082WAT      O15647   1.743   3.559   4.273
 5082WAT     H115648   1.720   3.493   4.338
 5082WAT     H215649   1.839   3.554   4.267
 5083WAT      O15650   5.195   1.245   5.680
 5083WAT     H115651   5.255   1.300   5.630
 5083WAT     H215652   5.234   1.241   5.767
 5084WAT      O15653   1.589   6.536   5.004
 5084WAT     H115654   1.522   6.598   4.975
 5084WAT     H215655   1.654   6.536   4.934
 5085WAT      O15656   6.853   2.414   4.983
 5085WAT     H115657   6.829   2.473   5.055
 5085WAT     H215658   6.879   2.473   4.912
 5086WAT      O15659   3.220   5.235   1.772
 5086WAT     H115660   3.195   5.198   1.687
 5086WAT     H215661   3.140   5.276   1.805
 5087WAT      O15662   4.967   1.100   5.751
 5087WAT     H115663   4.932   1.052   5.675
 5087WAT     H215664   5.046   1.142   5.718
 5088WAT      O15665   0.087   0.014   4.026
 5088WAT     H115666   0.161   0.004   3.967
 5088WAT     H215667   0.122   0.063   4.100
 5089WAT      O15668   5.447   4.545   4.800
 5089WAT     H115669   5.445   4.487   4.723
 5089WAT     H215670   5.356   4.550   4.828
 5090WAT      O15671   1.780   0.910   4.007
 5090WAT     H115672   1.723   0.903   4.084
 5090WAT     H215673   1.868   0.921   4.043
 5091WAT      O15674   2.082   1.747   5.950
 5091WAT     H115675   2.011   1.810   5.941
 5091WAT     H215676   2.044   1.673   5.997
 5092WAT      O15677   4.531   0.336   2.737
 5092WAT     H115678   4.479   0.365   2.813
 5092WAT     H215679   4.621   0.362   2.759
 5093WAT      O15680   0.607   3.755   3.407
 5093WAT     H115681   0.531   3.721   3.360
 5093WAT     H215682   0.682   3.723   3.356
 5094WAT      O15683   1.415   2.038   2.049
 5094WAT     H115684   1.431   1.949   2.080
 5094WAT     H215685   1.354   2.028   1.977
 5095WAT      O15686   3.759   6.062   1.030
 5095WAT     H115687   3.818   6.053   1.105
 5095WAT     H215688   3.711   5.980   1.027
 5096WAT      O15689   2.967   7.155   2.036
 5096WAT     H115690   3.053   7.174   2.073
 5096WAT     H215691   2.908   7.219   2.076
 5097WAT      O15692   6.235   6.857   5.311
 5097WAT     H115693   6.223   6.765   5.331
 5097WAT     H215694   6.195   6.903   5.385
 5098WAT      O15695   5.807   6.875   2.674
 5098WAT     H115696   5.756   6.919   2.606
 5098WAT     H215697   5.779   6.784   2.669
 5099WAT      O15698   2.387   2.820   4.211
 5099WAT     H115699   2.365   2.785   4.124
 5099WAT     H215700   2.323   2.890   4.225
 5100WAT      O15701   2.705   6.979   0.553
 5100WAT     H115702   2.620   7.015   0.525
 5100WAT     H215703   2.754   6.967   0.472
 5101WAT      O15704   7.635   3.174   0.667
 5101WAT     H115705   7.657   3.095   0.716
 5101WAT     H215706   7.601   3.143   0.584
 5102WAT      O15707   6.691   0.801   5.935
 5102WAT     H115708   6.682   0.845   5.850
 5102WAT     H215709   6.651   0.715   5.921
 5103WAT      O15710   1.029   4.807   1.936
 5103WAT     H115711   0.968   4.762   1.877
 5103WAT     H215712   1.066   4.877   1.883
 5104WAT      O15713   2.190   7.057   1.470
 5104WAT     H115714   2.131   7.020   1.404
 5104WAT     H215715   2.274   7.065   1.425
 5105WAT      O15716   6.026   3.221   4.697
 5105WAT     H115717   5.991   3.132   4.702
 5105WAT     H215718   5.951   3.274   4.669
 5106WAT      O15719   5.560   6.279   2.153
 5106WAT     H115720   5.535   6.295   2.062
 5106WAT     H215721   5.648   6.314   2.160
 5107WAT      O15722   4.011   6.714   0.021
 5107WAT     H115723   4.079   6.648   0.025
 5107WAT     H215724   4.052   6.794   0.055
 5108WAT      O15725   3.187   2.543   5.598
 5108WAT     H115726   3.237   2.576   5.523
 5108WAT     H215727   3.206   2.450   5.601
 5109WAT      O15728   6.114   2.822   0.527
 5109WAT     H115729   6.174   2.755   0.496
 5109WAT     H215730   6.109   2.885   0.456
 5110WAT      O15731   3.568   6.976   2.050
 5110WAT     H115732   3.654   6.997   2.087
 5110WAT     H215733   3.578   6.990   1.956
 5111WAT      O15734   1.222   6.219   1.467
 5111WAT     H115735   1.233   6.295   1.409
 5111WAT     H215736   1.291   6.159   1.440
 5112WAT      O15737   7.283   0.016   4.068
 5112WAT     H115738   7.199   0.049   4.098
 5112WAT     H215739   7.346   0.048   4.132
 5113WAT      O15740   1.410   1.800   2.225
 5113WAT     H115741   1.418   1.720   2.173
 5113WAT     H215742   1.431   1.772   2.314
 5114WAT      O15743   0.373   5.942   3.268
 5114WAT     H115744   0.295   5.922   3.216
 5114WAT     H215745   0.421   6.005   3.214
 5115WAT      O15746   1.690   2.247   1.822
 5115WAT     H115747   1.614   2.295   1.790
 5115WAT     H215748   1.709   2.183   1.753
 5116WAT      O15749   2.128   1.654   5.621
 5116WAT     H115750   2.106   1.745   5.602
 5116WAT     H215751   2.192   1.630   5.554
 5117WAT      O15752   2.252   0.730   0.373
 5117WAT     H115753   2.310   0.802   0.349
 5117WAT     H215754   2.179   0.771   0.420
 5118WAT      O15755   5.320   0.295   2.778
 5118WAT     H115756   5.374   0.357   2.729
 5118WAT     H215757   5.272   0.246   2.711
 5119WAT      O15758   0.055   1.315   2.284
 5119WAT     H115759   0.028   1.295   2.374
 5119WAT     H215760  -0.026   1.327   2.236
 5120WAT      O15761   5.140   1.781   5.923
 5120WAT     H115762   5.133   1.835   5.843
 5120WAT     H215763   5.123   1.842   5.994
 5121WAT      O15764   0.121   3.646   2.516
 5121WAT     H115765   0.103   3.569   2.570
 5121WAT     H215766   0.216   3.659   2.524
 5122WAT      O15767   4.542   0.783   0.155
 5122WAT     H115768   4.510   0.751   0.239
 5122WAT     H215769   4.606   0.718   0.127
 5123WAT      O15770   3.868   2.177   4.688
 5123WAT     H115771   3.862   2.229   4.609
 5123WAT     H215772   3.792   2.119   4.685
 5124WAT      O15773   4.598   2.682   0.167
 5124WAT     H115774   4.633   2.767   0.139
 5124WAT     H215775   4.571   2.639   0.086
 5125WAT      O15776   5.691   4.101   0.376
 5125WAT     H115777   5.616   4.155   0.352
 5125WAT     H215778   5.674   4.016   0.335
 5126WAT      O15779   0.288   0.762   3.516
 5126WAT     H115780   0.281   0.686   3.573
 5126WAT     H215781   0.249   0.734   3.434
 5127WAT      O15782   2.331   1.666   0.599
 5127WAT     H115783   2.315   1.591   0.542
 5127WAT     H215784   2.416   1.699   0.570
 5128WAT      O15785   3.078   2.224   1.315
 5128WAT     H115786   3.171   2.209   1.301
 5128WAT     H215787   3.039   2.220   1.228
 5129WAT      O15788   1.307   6.027   5.054
 5129WAT     H115789   1.367   6.055   4.984
 5129WAT     H215790   1.221   6.052   5.022
 5130WAT      O15791   5.967   3.377   4.312
 5130WAT     H115792   5.890   3.424   4.343
 5130WAT     H215793   6.041   3.431   4.339
 5131WAT      O15794   3.843   7.166   1.235
 5131WAT     H115795   3.846   7.203   1.147
 5131WAT     H215796   3.865   7.074   1.224
 5132WAT      O15797   1.784   4.183   5.895
 5132WAT     H115798   1.703   4.138   5.869
 5132WAT     H215799   1.846   4.113   5.913
 5133WAT      O15800   1.708   5.772   3.016
 5133WAT     H115801   1.798   5.792   2.991
 5133WAT     H215802   1.661   5.767   2.932
 5134WAT      O15803   7.354   4.874   1.008
 5134WAT     H115804   7.364   4.794   0.957
 5134WAT     H215805   7.444   4.904   1.024
 5135WAT      O15806   2.228   5.985   2.721
 5135WAT     H115807   2.139   6.011   2.744
 5135WAT     H215808   2.227   5.890   2.722
 5136WAT      O15809   0.089   1.377   5.647
 5136WAT     H115810   0.184   1.382   5.639
 5136WAT     H215811   0.074   1.322   5.724
 5137WAT      O15812   3.652   7.059   2.624
 5137WAT     H115813   3.700   7.023   2.549
 5137WAT     H215814   3.610   7.138   2.590
 5138WAT      O15815   7.162   3.163   0.976
 5138WAT     H115816   7.186   3.167   0.883
 5138WAT     H215817   7.075   3.125   0.976
 5139WAT      O15818   2.561   4.943   0.209
 5139WAT     H115819   2.479   4.927   0.162
 5139WAT     H215820   2.534   4.952   0.301
 5140WAT      O15821   2.969   5.728   5.711
 5140WAT     H115822   2.998   5.687   5.629
 5140WAT     H215823   3.044   5.780   5.740
 5141WAT      O15824   4.904   2.222   5.198
 5141WAT     H115825   4.864   2.211   5.285
 5141WAT     H215826   4.910   2.317   5.186
 5142WAT      O15827   3.040   6.015   0.348
 5142WAT     H115828   3.099   5.940   0.344
 5142WAT     H215829   3.004   6.023   0.260
 5143WAT      O15830   1.262   0.858   1.095
 5143WAT     H115831   1.353   0.838   1.073
 5143WAT     H215832   1.213   0.780   1.069
 5144WAT      O15833   1.755   0.841   4.691
 5144WAT     H115834   1.839   0.797   4.684
 5144WAT     H215835   1.693   0.784   4.646
 5145WAT      O15836   4.053   2.230   0.973
 5145WAT     H115837   4.147   2.239   0.990
 5145WAT     H215838   4.026   2.316   0.939
 5146WAT      O15839   2.767   4.194   0.152
 5146WAT     H115840   2.687   4.216   0.104
 5146WAT     H215841   2.834   4.190   0.084
 5147WAT      O15842   5.102   0.386   6.113
 5147WAT     H115843   5.019   0.351   6.080
 5147WAT     H215844   5.151   0.309   6.141
 5148WAT      O15845   1.814   2.466   2.722
 5148WAT     H115846   1.884   2.456   2.658
 5148WAT     H215847   1.856   2.511   2.796
 5149WAT      O15848   4.708   2.053   1.470
 5149WAT     H115849   4.758   2.041   1.389
 5149WAT     H215850   4.739   2.136   1.505
 5150WAT      O15851   6.265   2.810   3.388
 5150WAT     H115852   6.315   2.774   3.315
 5150WAT     H215853   6.228   2.733   3.432
 5151WAT      O15854   6.614   0.003   4.837
 5151WAT     H115855   6.588   0.041   4.754
 5151WAT     H215856   6.537  -0.045   4.867
 5152WAT      O15857   0.584   6.533   5.593
 5152WAT     H115858   0.518   6.582   5.545
 5152WAT     H215859   0.539   6.500   5.670
 5153WAT      O15860   2.025   4.263   4.777
 5153WAT     H115861   2.083   4.339   4.791
 5153WAT     H215862   2.039   4.238   4.686
 5154WAT      O15863   0.825   1.745   2.094
 5154WAT     H115864   0.855   1.829   2.059
 5154WAT     H215865   0.906   1.696   2.111
 5155WAT      O15866   4.191   3.270   0.200
 5155WAT     H115867   4.236   3.320   0.132
 5155WAT     H215868   4.103   3.256   0.166
 5156WAT      O15869   6.360   2.923   0.694
 5156WAT     H115870   6.284   2.936   0.638
 5156WAT     H215871   6.368   2.828   0.703
 5157WAT      O15872   0.966   1.656   2.440
 5157WAT     H115873   0.943   1.662   2.347
 5157WAT     H215874   0.969   1.747   2.470
 5158WAT      O15875   2.312   6.896   5.093
 5158WAT     H115876   2.382   6.953   5.124
 5158WAT     H215877   2.356   6.815   5.067
 5159WAT      O15878   0.212   3.633   1.652
 5159WAT     H115879   0.236   3.721   1.621
 5159WAT     H215880   0.205   3.643   1.747
 5160WAT      O15881   5.046   3.008   1.707
 5160WAT     H115882   5.093   2.935   1.668
 5160WAT     H215883   5.115   3.066   1.741
 5161WAT      O15884   5.470   3.188   4.382
 5161WAT     H115885   5.474   3.199   4.287
 5161WAT     H215886   5.557   3.158   4.407
 5162WAT      O15887   1.765   5.938   4.111
 5162WAT     H115888   1.847   5.897   4.084
 5162WAT     H215889   1.700   5.909   4.046
 5163WAT      O15890   3.152   2.974   4.253
 5163WAT     H115891   3.095   2.914   4.302
 5163WAT     H215892   3.128   2.960   4.161
 5164WAT      O15893   5.135   0.655   3.071
 5164WAT     H115894   5.042   0.646   3.051
 5164WAT     H215895   5.138   0.660   3.167
 5165WAT      O15896   1.974   2.281   3.184
 5165WAT     H115897   2.062   2.308   3.158
 5165WAT     H215898   1.973   2.186   3.172
 5166WAT      O15899   3.855   4.781   3.273
 5166WAT     H115900   3.778   4.828   3.306
 5166WAT     H215901   3.829   4.751   3.186
 5167WAT      O15902   4.517   2.506   1.139
 5167WAT     H115903   4.556   2.495   1.052
 5167WAT     H215904   4.592   2.505   1.199
 5168WAT      O15905   4.136   0.129   5.366
 5168WAT     H115906   4.180   0.210   5.390
 5168WAT     H215907   4.048   0.137   5.403
 5169WAT      O15908   5.937   4.473   5.796
 5169WAT     H115909   5.877   4.398   5.796
 5169WAT     H215910   5.950   4.493   5.704
 5170WAT      O15911   3.942   0.817   3.827
 5170WAT     H115912   3.947   0.889   3.765
 5170WAT     H215913   3.998   0.844   3.900
 5171WAT      O15914   2.506   3.924   3.843
 5171WAT     H115915   2.478   4.013   3.862
 5171WAT     H215916   2.424   3.876   3.829
 5172WAT      O15917   7.032   2.785   4.347
 5172WAT     H115918   7.101   2.777   4.281
 5172WAT     H215919   6.975   2.854   4.316
 5173WAT      O15920   4.690   2.921   3.390
 5173WAT     H115921   4.754   2.936   3.321
 5173WAT     H215922   4.605   2.931   3.347
 5174WAT      O15923   6.908   4.243   5.113
 5174WAT     H115924   6.852   4.248   5.035
 5174WAT     H215925   6.983   4.298   5.092
 5175WAT      O15926   0.500   3.136   2.769
 5175WAT     H115927   0.595   3.145   2.775
 5175WAT     H215928   0.487   3.053   2.722
 5176WAT      O15929   3.444   0.823   5.042
 5176WAT     H115930   3.446   0.729   5.054
 5176WAT     H215931   3.427   0.836   4.948
 5177WAT      O15932   0.352   4.163   1.472
 5177WAT     H115933   0.431   4.169   1.418
 5177WAT     H215934   0.310   4.249   1.462
 5178WAT      O15935   5.511   2.144   0.026
 5178WAT     H115936   5.454   2.195  -0.031
 5178WAT     H215937   5.487   2.053   0.007
 5179WAT      O15938   3.861   5.347   1.538
 5179WAT     H115939   3.895   5.435   1.520
 5179WAT     H215940   3.831   5.315   1.453
 5180WAT      O15941   5.641   4.066   3.238
 5180WAT     H115942   5.700   4.095   3.169
 5180WAT     H215943   5.557   4.053   3.194
 5181WAT      O15944   4.847   2.429   4.132
 5181WAT     H115945   4.935   2.442   4.165
 5181WAT     H215946   4.822   2.513   4.094
 5182WAT      O15947   0.339   3.219   4.802
 5182WAT     H115948   0.297   3.149   4.753
 5182WAT     H215949   0.271   3.252   4.860
 5183WAT      O15950   6.516   2.227   3.436
 5183WAT     H115951   6.519   2.171   3.358
 5183WAT     H215952   6.444   2.287   3.420
 5184WAT      O15953   5.547   4.459   4.177
 5184WAT     H115954   5.529   4.425   4.265
 5184WAT     H215955   5.490   4.407   4.120
 5185WAT      O15956   7.293   5.053   3.319
 5185WAT     H115957   7.340   5.008   3.249
 5185WAT     H215958   7.211   5.004   3.328
 5186WAT      O15959   6.848   2.321   4.525
 5186WAT     H115960   6.800   2.249   4.486
 5186WAT     H215961   6.886   2.368   4.451
 5187WAT      O15962   4.961   7.141   4.883
 5187WAT     H115963   5.022   7.207   4.916
 5187WAT     H215964   4.954   7.160   4.789
 5188WAT      O15965   0.656   2.354   6.011
 5188WAT     H115966   0.586   2.350   5.945
 5188WAT     H215967   0.613   2.330   6.093
 5189WAT      O15968   5.079   4.039   4.250
 5189WAT     H115969   5.094   4.016   4.158
 5189WAT     H215970   5.108   4.130   4.257
 5190WAT      O15971   0.646   6.132   5.283
 5190WAT     H115972   0.580   6.190   5.322
 5190WAT     H215973   0.615   6.117   5.194
 5191WAT      O15974   3.388   4.188   4.065
 5191WAT     H115975   3.479   4.162   4.080
 5191WAT     H215976   3.361   4.140   3.987
 5192WAT      O15977   1.130   6.593   1.480
 5192WAT     H115978   1.040   6.569   1.500
 5192WAT     H215979   1.128   6.689   1.473
 5193WAT      O15980   3.565   5.687   1.706
 5193WAT     H115981   3.615   5.728   1.635
 5193WAT     H215982   3.587   5.594   1.700
 5194WAT      O15983   5.901   6.526   5.451
 5194WAT     H115984   5.836   6.464   5.483
 5194WAT     H215985   5.850   6.602   5.423
 5195WAT      O15986   1.189   1.817   1.715
 5195WAT     H115987   1.111   1.766   1.736
 5195WAT     H215988   1.198   1.810   1.620
 5196WAT      O15989   2.797   6.353   1.999
 5196WAT     H115990   2.833   6.381   1.915
 5196WAT     H215991   2.870   6.309   2.043
 5197WAT      O15992   6.067   2.157   3.828
 5197WAT     H115993   6.127   2.134   3.757
 5197WAT     H215994   6.115   2.221   3.880
 5198WAT      O15995   7.487   2.636   1.872
 5198WAT     H115996   7.512   2.721   1.909
 5198WAT     H215997   7.567   2.604   1.830
 5199WAT      O15998   0.513   1.471   4.699
 5199WAT     H115999   0.487   1.381   4.678
 5199WAT     H216000   0.586   1.489   4.639
 5200WAT      O16001   3.196   0.069   4.181
 5200WAT     H116002   3.104   0.097   4.188
 5200WAT     H216003   3.192  -0.026   4.196
 5201WAT      O16004   6.081   3.657   2.882
 5201WAT     H116005   6.138   3.589   2.919
 5201WAT     H216006   6.112   3.738   2.921
 5202WAT      O16007   2.618   2.954   5.016
 5202WAT     H116008   2.568   2.914   4.945
 5202WAT     H216009   2.710   2.944   4.989
 5203WAT      O16010   1.050   3.888   5.974
 5203WAT     H116011   1.064   3.824   5.905
 5203WAT     H216012   1.011   3.964   5.930
 5204WAT      O16013   4.980   5.989   1.039
 5204WAT     H116014   5.016   6.017   0.955
 5204WAT     H216015   4.887   6.011   1.033
 5205WAT      O16016   2.037   3.721   5.954
 5205WAT     H116017   2.105   3.664   5.917
 5205WAT     H216018   2.082   3.767   6.025
 5206WAT      O16019   3.988   3.208   3.991
 5206WAT     H116020   4.065   3.152   3.983
 5206WAT     H216021   4.019   3.296   3.970
 5207WAT      O16022   6.998   1.389   0.762
 5207WAT     H116023   6.958   1.463   0.717
 5207WAT     H216024   6.986   1.409   0.855
 5208WAT      O16025   4.378   2.390   3.447
 5208WAT     H116026   4.424   2.419   3.526
 5208WAT     H216027   4.445   2.394   3.378
 5209WAT      O16028   4.028   2.555   1.220
 5209WAT     H116029   3.949   2.503   1.202
 5209WAT     H216030   4.033   2.616   1.146
 5210WAT      O16031   2.381   2.388   5.772
 5210WAT     H116032   2.316   2.426   5.713
 5210WAT     H216033   2.436   2.334   5.714
 5211WAT      O16034   6.158   1.129   4.501
 5211WAT     H116035   6.089   1.131   4.435
 5211WAT     H216036   6.134   1.056   4.558
 5212WAT      O16037   7.421   6.662   5.556
 5212WAT     H116038   7.367   6.618   5.490
 5212WAT     H216039   7.382   6.749   5.565
 5213WAT      O16040   4.482   6.996   1.109
 5213WAT     H116041   4.444   7.058   1.047
 5213WAT     H216042   4.525   6.930   1.055
 5214WAT      O16043   0.186   6.472   5.989
 5214WAT     H116044   0.231   6.446   6.069
 5214WAT     H216045   0.100   6.430   5.994
 5215WAT      O16046   2.928   1.537   2.418
 5215WAT     H116047   2.913   1.615   2.364
 5215WAT     H216048   2.954   1.470   2.355
 5216WAT      O16049   3.340   3.104   3.784
 5216WAT     H116050   3.392   3.024   3.776
 5216WAT     H216051   3.358   3.153   3.705
 5217WAT      O16052   2.756   3.311   4.053
 5217WAT     H116053   2.790   3.374   3.990
 5217WAT     H216054   2.781   3.226   4.018
 5218WAT      O16055   2.099   3.991   0.229
 5218WAT     H116056   2.005   3.975   0.233
 5218WAT     H216057   2.126   3.999   0.320
 5219WAT      O16058   0.248   2.118   3.575
 5219WAT     H116059   0.252   2.035   3.528
 5219WAT     H216060   0.168   2.159   3.543
 5220WAT      O16061   7.130   4.676   0.124
 5220WAT     H116062   7.138   4.694   0.030
 5220WAT     H216063   7.047   4.630   0.133
 5221WAT      O16064   0.456   6.596   3.855
 5221WAT     H116065   0.516   6.608   3.929
 5221WAT     H216066   0.453   6.501   3.842
 5222WAT      O16067   3.906   2.947   5.830
 5222WAT     H116068   3.971   2.884   5.861
 5222WAT     H216069   3.935   2.969   5.741
 5223WAT      O16070   0.858   2.655   1.638
 5223WAT     H116071   0.766   2.667   1.617
 5223WAT     H216072   0.899   2.738   1.615
 5224WAT      O16073   4.400   0.449   5.631
 5224WAT     H116074   4.433   0.495   5.708
 5224WAT     H216075   4.477   0.440   5.574
 5225WAT      O16076   4.312   2.539   2.381
 5225WAT     H116077   4.373   2.466   2.380
 5225WAT     H216078   4.352   2.603   2.439
 5226WAT      O16079   3.679   6.545   0.523
 5226WAT     H116080   3.737   6.614   0.553
 5226WAT     H216081   3.591   6.576   0.546
 5227WAT      O16082   0.927   6.952   5.628
 5227WAT     H116083   0.950   6.859   5.616
 5227WAT     H216084   0.844   6.962   5.581
 5228WAT      O16085   0.609   0.883   3.699
 5228WAT     H116086   0.521   0.873   3.664
 5228WAT     H216087   0.667   0.864   3.625
 5229WAT      O16088   7.177   0.283   0.719
 5229WAT     H116089   7.272   0.288   0.705
 5229WAT     H216090   7.166   0.303   0.812
 5230WAT      O16091   7.616   5.389   4.923
 5230WAT     H116092   7.620   5.340   4.841
 5230WAT     H216093   7.543   5.350   4.971
 5231WAT      O16094   3.816   2.571   1.984
 5231WAT     H116095   3.846   2.528   1.904
 5231WAT     H216096   3.897   2.599   2.028
 5232WAT      O16097   7.519   1.969   1.808
 5232WAT     H116098   7.527   1.980   1.713
 5232WAT     H216099   7.445   2.025   1.832
 5233WAT      O16100   3.260   1.679   2.324
 5233WAT     H116101   3.253   1.598   2.273
 5233WAT     H216102   3.338   1.722   2.289
 5234WAT      O16103   4.198   0.735   5.381
 5234WAT     H116104   4.277   0.779   5.412
 5234WAT     H216105   4.220   0.702   5.294
 5235WAT      O16106   0.035   6.267   4.206
 5235WAT     H116107   0.082   6.347   4.232
 5235WAT     H216108   0.092   6.225   4.142
 5236WAT      O16109   3.130   4.278   4.128
 5236WAT     H116110   3.222   4.256   4.142
 5236WAT     H216111   3.118   4.274   4.033
 5237WAT      O16112   3.606   6.265   3.740
 5237WAT     H116113   3.545   6.337   3.756
 5237WAT     H216114   3.552   6.186   3.744
 5238WAT      O16115   0.156   6.907   1.644
 5238WAT     H116116   0.095   6.904   1.570
 5238WAT     H216117   0.221   6.840   1.624
 5239WAT      O16118   6.526   6.072   1.050
 5239WAT     H116119   6.507   6.166   1.054
 5239WAT     H216120   6.453   6.031   1.096
 5240WAT      O16121   7.198   4.871   5.497
 5240WAT     H116122   7.259   4.837   5.432
 5240WAT     H216123   7.112   4.845   5.465
 5241WAT      O16124   7.511   2.713   2.960
 5241WAT     H116125   7.506   2.723   3.055
 5241WAT     H216126   7.477   2.796   2.926
 5242WAT      O16127   5.950   3.190   0.438
 5242WAT     H116128   5.936   3.270   0.387
 5242WAT     H216129   5.862   3.157   0.456
 5243WAT      O16130   7.471   5.273   2.167
 5243WAT     H116131   7.456   5.241   2.078
 5243WAT     H216132   7.390   5.253   2.213
 5244WAT      O16133   5.192   0.890   4.610
 5244WAT     H116134   5.176   0.984   4.600
 5244WAT     H216135   5.218   0.861   4.522
 5245WAT      O16136   3.267   0.081   2.624
 5245WAT     H116137   3.283   0.174   2.640
 5245WAT     H216138   3.240   0.076   2.533
 5246WAT      O16139   5.318   0.571   4.979
 5246WAT     H116140   5.344   0.483   5.006
 5246WAT     H216141   5.286   0.559   4.889
 5247WAT      O16142   6.741   0.917   4.991
 5247WAT     H116143   6.755   0.934   5.084
 5247WAT     H216144   6.796   0.840   4.973
 5248WAT      O16145   5.169   5.494   0.033
 5248WAT     H116146   5.250   5.454   0.001
 5248WAT     H216147   5.132   5.538  -0.044
 5249WAT      O16148   2.100   2.932   1.340
 5249WAT     H116149   2.017   2.890   1.316
 5249WAT     H216150   2.143   2.949   1.256
 5250WAT      O16151   1.100   0.849   0.796
 5250WAT     H116152   1.047   0.883   0.724
 5250WAT     H216153   1.102   0.920   0.860
 5251WAT      O16154   5.327   0.219   2.303
 5251WAT     H116155   5.279   0.145   2.267
 5251WAT     H216156   5.360   0.266   2.226
 5252WAT      O16157   2.007   0.293   3.632
 5252WAT     H116158   2.094   0.257   3.649
 5252WAT     H216159   1.992   0.278   3.539
 5253WAT      O16160   3.837   0.387   5.245
 5253WAT     H116161   3.750   0.348   5.243
 5253WAT     H216162   3.892   0.325   5.197
 5254WAT      O16163   5.708   2.563   4.140
 5254WAT     H116164   5.673   2.609   4.064
 5254WAT     H216165   5.763   2.627   4.184
 5255WAT      O16166   4.817   6.138   1.881
 5255WAT     H116167   4.743   6.158   1.938
 5255WAT     H216168   4.805   6.195   1.805
 5256WAT      O16169   7.320   5.837   3.994
 5256WAT     H116170   7.273   5.776   4.051
 5256WAT     H216171   7.388   5.784   3.954
 5257WAT      O16172   0.871   5.048   1.127
 5257WAT     H116173   0.900   5.134   1.157
 5257WAT     H216174   0.799   5.025   1.186
 5258WAT      O16175   2.171   4.932   1.063
 5258WAT     H116176   2.257   4.943   1.105
 5258WAT     H216177   2.109   4.927   1.135
 5259WAT      O16178   7.202   7.179   2.264
 5259WAT     H116179   7.140   7.192   2.336
 5259WAT     H216180   7.253   7.260   2.261
 5260WAT      O16181   2.208   0.915   3.228
 5260WAT     H116182   2.153   0.884   3.300
 5260WAT     H216183   2.155   0.899   3.149
 5261WAT      O16184   2.833   2.216   2.252
 5261WAT     H116185   2.740   2.230   2.235
 5261WAT     H216186   2.839   2.124   2.277
 5262WAT      O16187   1.901   0.848   5.069
 5262WAT     H116188   1.863   0.873   5.153
 5262WAT     H216189   1.837   0.788   5.030
 5263WAT      O16190   5.673   6.284   5.596
 5263WAT     H116191   5.724   6.218   5.548
 5263WAT     H216192   5.588   6.242   5.610
 5264WAT      O16193   3.380   7.153   3.250
 5264WAT     H116194   3.317   7.172   3.181
 5264WAT     H216195   3.398   7.059   3.242
 5265WAT      O16196   4.597   5.944   1.683
 5265WAT     H116197   4.634   5.902   1.605
 5265WAT     H216198   4.663   5.930   1.751
 5266WAT      O16199   1.553   5.523   5.294
 5266WAT     H116200   1.583   5.502   5.382
 5266WAT     H216201   1.458   5.512   5.297
 5267WAT      O16202   7.125   0.298   3.806
 5267WAT     H116203   7.130   0.283   3.712
 5267WAT     H216204   7.204   0.256   3.841
 5268WAT      O16205   0.097   1.740   1.802
 5268WAT     H116206   0.099   1.657   1.849
 5268WAT     H216207   0.156   1.728   1.728
 5269WAT      O16208   2.699   1.249   0.504
 5269WAT     H116209   2.783   1.203   0.511
 5269WAT     H216210   2.655   1.208   0.430
 5270WAT      O16211   6.316   1.412   5.853
 5270WAT     H116212   6.289   1.428   5.943
 5270WAT     H216213   6.260   1.471   5.801
 5271WAT      O16214   2.390   6.769   3.463
 5271WAT     H116215   2.377   6.846   3.408
 5271WAT     H216216   2.372   6.800   3.552
 5272WAT      O16217   2.229   3.492   1.672
 5272WAT     H116218   2.144   3.450   1.657
 5272WAT     H216219   2.225   3.573   1.620
 5273WAT      O16220   0.071   3.406   0.223
 5273WAT     H116221   0.053   3.461   0.147
 5273WAT     H216222   0.164   3.384   0.215
 5274WAT      O16223   2.945   3.361   5.490
 5274WAT     H116224   2.989   3.354   5.575
 5274WAT     H216225   2.895   3.280   5.482
 5275WAT      O16226   3.181   6.705   0.476
 5275WAT     H116227   3.164   6.724   0.568
 5275WAT     H216228   3.103   6.659   0.446
 5276WAT      O16229   5.818   4.856   1.874
 5276WAT     H116230   5.747   4.896   1.822
 5276WAT     H216231   5.860   4.930   1.917
 5277WAT      O16232   1.120   1.728   1.445
 5277WAT     H116233   1.113   1.658   1.380
 5277WAT     H216234   1.035   1.727   1.490
 5278WAT      O16235   0.506   3.327   0.649
 5278WAT     H116236   0.491   3.245   0.601
 5278WAT     H216237   0.595   3.320   0.682
 5279WAT      O16238   1.674   5.519   5.564
 5279WAT     H116239   1.645   5.554   5.649
 5279WAT     H216240   1.754   5.567   5.544
 5280WAT      O16241   6.124   1.906   4.638
 5280WAT     H116242   6.175   1.970   4.688
 5280WAT     H216243   6.186   1.870   4.575
 5281WAT      O16244   0.926   4.972   4.800
 5281WAT     H116245   0.905   4.955   4.708
 5281WAT     H216246   1.011   4.929   4.813
 5282WAT      O16247   5.359   0.836   3.211
 5282WAT     H116248   5.373   0.930   3.200
 5282WAT     H216249   5.265   0.828   3.227
 5283WAT      O16250   2.913   1.005   2.008
 5283WAT     H116251   2.820   1.009   2.030
 5283WAT     H216252   2.916   1.021   1.913
 5284WAT      O16253   6.872   6.069   1.200
 5284WAT     H116254   6.853   6.022   1.280
 5284WAT     H216255   6.800   6.131   1.191
 5285WAT      O16256   7.267   3.348   0.420
 5285WAT     H116257   7.261   3.419   0.356
 5285WAT     H216258   7.245   3.388   0.504
 5286WAT      O16259   4.204   2.449   0.308
 5286WAT     H116260   4.224   2.409   0.224
 5286WAT     H216261   4.200   2.543   0.290
 5287WAT      O16262   0.722   2.152   3.848
 5287WAT     H116263   0.728   2.245   3.823
 5287WAT     H216264   0.738   2.105   3.766
 5288WAT      O16265   3.466   3.748   5.118
 5288WAT     H116266   3.515   3.684   5.169
 5288WAT     H216267   3.454   3.707   5.032
 5289WAT      O16268   3.358   2.632   2.950
 5289WAT     H116269   3.335   2.565   3.014
 5289WAT     H216270   3.295   2.702   2.965
 5290WAT      O16271   3.992   5.983   0.375
 5290WAT     H116272   3.932   5.979   0.300
 5290WAT     H216273   4.011   5.891   0.394
 5291WAT      O16274   4.686   1.195   6.053
 5291WAT     H116275   4.778   1.169   6.052
 5291WAT     H216276   4.687   1.290   6.038
 5292WAT      O16277   6.718   3.393   3.154
 5292WAT     H116278   6.744   3.341   3.078
 5292WAT     H216279   6.754   3.480   3.138
 5293WAT      O16280   5.512   3.010   5.043
 5293WAT     H116281   5.554   3.079   4.992
 5293WAT     H216282   5.429   2.995   4.999
 5294WAT      O16283   5.412   2.489   4.530
 5294WAT     H116284   5.449   2.483   4.442
 5294WAT     H216285   5.318   2.490   4.517
 5295WAT      O16286   6.171   5.114   6.233
 5295WAT     H116287   6.172   5.192   6.178
 5295WAT     H216288   6.263   5.097   6.253
 5296WAT      O16289   0.770   3.940   1.482
 5296WAT     H116290   0.694   3.905   1.436
 5296WAT     H216291   0.736   3.967   1.567
 5297WAT      O16292   6.091   1.602   5.913
 5297WAT     H116293   6.027   1.673   5.917
 5297WAT     H216294   6.122   1.603   5.822
 5298WAT      O16295   3.255   1.858   4.451
 5298WAT     H116296   3.296   1.811   4.378
 5298WAT     H216297   3.187   1.911   4.410
 5299WAT      O16298   0.792   5.388   0.797
 5299WAT     H116299   0.826   5.478   0.802
 5299WAT     H216300   0.862   5.338   0.756
 5300WAT      O16301   3.163   1.487   5.438
 5300WAT     H116302   3.120   1.548   5.379
 5300WAT     H216303   3.237   1.535   5.474
 5301WAT      O16304   1.689   0.237   1.120
 5301WAT     H116305   1.644   0.154   1.103
 5301WAT     H216306   1.680   0.286   1.039
 5302WAT      O16307   5.790   5.536   5.970
 5302WAT     H116308   5.821   5.480   6.041
 5302WAT     H216309   5.831   5.500   5.891
 5303WAT      O16310   6.857   5.805   4.691
 5303WAT     H116311   6.917   5.775   4.623
 5303WAT     H216312   6.789   5.851   4.643
 5304WAT      O16313   7.564   2.500   2.796
 5304WAT     H116314   7.549   2.574   2.855
 5304WAT     H216315   7.480   2.488   2.752
 5305WAT      O16316   5.391   2.507   1.585
 5305WAT     H116317   5.304   2.479   1.558
 5305WAT     H216318   5.446   2.429   1.576
 5306WAT      O16319   5.922   5.431   3.833
 5306WAT     H116320   5.934   5.340   3.860
 5306WAT     H216321   5.998   5.451   3.778
 5307WAT      O16322   6.254   7.037   0.383
 5307WAT     H116323   6.166   7.042   0.348
 5307WAT     H216324   6.295   7.121   0.361
 5308WAT      O16325   6.942   3.697   3.301
 5308WAT     H116326   7.025   3.733   3.267
 5308WAT     H216327   6.881   3.704   3.228
 5309WAT      O16328   4.292   4.573   5.036
 5309WAT     H116329   4.382   4.596   5.062
 5309WAT     H216330   4.268   4.641   4.972
 5310WAT      O16331   7.501   3.342   4.107
 5310WAT     H116332   7.590   3.375   4.091
 5310WAT     H216333   7.448   3.421   4.117
 5311WAT      O16334   1.825   5.133   4.570
 5311WAT     H116335   1.860   5.084   4.495
 5311WAT     H216336   1.775   5.204   4.531
 5312WAT      O16337   2.397   6.310   1.592
 5312WAT     H116338   2.367   6.245   1.656
 5312WAT     H216339   2.345   6.293   1.514
 5313WAT      O16340   3.997   5.363   1.790
 5313WAT     H116341   4.072   5.418   1.770
 5313WAT     H216342   3.975   5.319   1.708
 5314WAT      O16343   1.042   6.874   0.683
 5314WAT     H116344   1.000   6.836   0.606
 5314WAT     H216345   1.132   6.892   0.656
 5315WAT      O16346   2.553   0.985   1.684
 5315WAT     H116347   2.601   1.061   1.650
 5315WAT     H216348   2.480   1.023   1.733
 5316WAT      O16349   4.422   3.094   0.981
 5316WAT     H116350   4.391   3.175   0.940
 5316WAT     H216351   4.518   3.100   0.975
 5317WAT      O16352   1.680   2.710   1.627
 5317WAT     H116353   1.701   2.636   1.570
 5317WAT     H216354   1.586   2.702   1.643
 5318WAT      O16355   6.360   5.400   0.033
 5318WAT     H116356   6.280   5.363  -0.006
 5318WAT     H216357   6.426   5.392  -0.036
 5319WAT      O16358   1.610   6.983   0.885
 5319WAT     H116359   1.561   7.065   0.878
 5319WAT     H216360   1.674   6.987   0.814
 5320WAT      O16361   3.110   4.449   2.153
 5320WAT     H116362   3.129   4.503   2.076
 5320WAT     H216363   3.159   4.491   2.224
 5321WAT      O16364   1.758   2.290   5.305
 5321WAT     H116365   1.691   2.298   5.236
 5321WAT     H216366   1.766   2.196   5.319
 5322WAT      O16367   0.361   1.935   4.113
 5322WAT     H116368   0.295   1.910   4.049
 5322WAT     H216369   0.423   1.989   4.065
 5323WAT      O16370   5.975   5.996   0.808
 5323WAT     H116371   5.924   6.068   0.771
 5323WAT     H216372   6.055   5.993   0.755
 5324WAT      O16373   5.205   4.284   0.238
 5324WAT     H116374   5.155   4.247   0.165
 5324WAT     H216375   5.281   4.227   0.246
 5325WAT      O16376   4.500   7.003   0.504
 5325WAT     H116377   4.497   6.908   0.488
 5325WAT     H216378   4.528   7.011   0.595
 5326WAT      O16379   6.094   0.568   2.427
 5326WAT     H116380   6.171   0.515   2.444
 5326WAT     H216381   6.128   0.650   2.391
 5327WAT      O16382   5.125   5.121   1.284
 5327WAT     H116383   5.110   5.035   1.246
 5327WAT     H216384   5.169   5.171   1.215
 5328WAT      O16385   7.310   2.630   4.123
 5328WAT     H116386   7.221   2.666   4.117
 5328WAT     H216387   7.339   2.624   4.032
 5329WAT      O16388   3.246   0.554   5.418
 5329WAT     H116389   3.212   0.644   5.414
 5329WAT     H216390   3.240   0.531   5.511
 5330WAT      O16391   1.613   2.295   0.833
 5330WAT     H116392   1.537   2.346   0.863
 5330WAT     H216393   1.643   2.249   0.911
 5331WAT      O16394   1.572   6.805   3.923
 5331WAT     H116395   1.596   6.877   3.864
 5331WAT     H216396   1.560   6.730   3.865
 5332WAT      O16397   6.381   2.490   5.288
 5332WAT     H116398   6.327   2.473   5.365
 5332WAT     H216399   6.353   2.425   5.223
 5333WAT      O16400   6.344   5.785   1.232
 5333WAT     H116401   6.297   5.702   1.230
 5333WAT     H216402   6.369   5.800   1.141
 5334WAT      O16403   7.103   5.266   5.743
 5334WAT     H116404   7.081   5.355   5.770
 5334WAT     H216405   7.060   5.255   5.659
 5335WAT      O16406   3.827   2.823   3.619
 5335WAT     H116407   3.773   2.864   3.552
 5335WAT     H216408   3.876   2.896   3.657
 5336WAT      O16409   5.322   0.547   4.150
 5336WAT     H116410   5.378   0.624   4.149
 5336WAT     H216411   5.381   0.474   4.131
 5337WAT      O16412   3.005   1.742   6.004
 5337WAT     H116413   2.982   1.713   5.916
 5337WAT     H216414   2.933   1.710   6.059
 5338WAT      O16415   1.786   1.321   4.826
 5338WAT     H116416   1.790   1.414   4.848
 5338WAT     H216417   1.828   1.277   4.900
 5339WAT      O16418   4.522   3.400   0.975
 5339WAT     H116419   4.491   3.415   0.886
 5339WAT     H216420   4.501   3.481   1.022
 5340WAT      O16421   3.149   0.288   3.917
 5340WAT     H116422   3.164   0.269   4.009
 5340WAT     H216423   3.213   0.355   3.895
 5341WAT      O16424   5.851   2.112   2.806
 5341WAT     H116425   5.812   2.024   2.808
 5341WAT     H216426   5.867   2.134   2.898
 5342WAT      O16427   5.852   6.301   3.124
 5342WAT     H116428   5.929   6.354   3.101
 5342WAT     H216429   5.782   6.337   3.069
 5343WAT      O16430   5.408   2.855   1.945
 5343WAT     H116431   5.362   2.787   1.895
 5343WAT     H216432   5.357   2.934   1.930
 5344WAT      O16433   4.390   4.038   5.045
 5344WAT     H116434   4.463   3.977   5.031
 5344WAT     H216435   4.397   4.100   4.973
 5345WAT      O16436   0.325   5.975   5.531
 5345WAT     H116437   0.335   5.915   5.457
 5345WAT     H216438   0.400   5.955   5.587
 5346WAT      O16439   0.965   6.379   2.380
 5346WAT     H116440   0.910   6.332   2.444
 5346WAT     H216441   1.002   6.309   2.326
 5347WAT      O16442   3.176   6.409   1.229
 5347WAT     H116443   3.148   6.318   1.223
 5347WAT     H216444   3.134   6.443   1.307
 5348WAT      O16445   4.649   3.577   4.171
 5348WAT     H116446   4.707   3.653   4.176
 5348WAT     H216447   4.566   3.607   4.207
 5349WAT      O16448   1.552   7.094   5.130
 5349WAT     H116449   1.575   7.007   5.098
 5349WAT     H216450   1.562   7.151   5.054
 5350WAT      O16451   3.641   1.749   2.850
 5350WAT     H116452   3.669   1.674   2.798
 5350WAT     H216453   3.555   1.772   2.815
 5351WAT      O16454   3.113   2.560   1.702
 5351WAT     H116455   3.032   2.586   1.657
 5351WAT     H216456   3.083   2.510   1.777
 5352WAT      O16457   6.212   5.294   5.985
 5352WAT     H116458   6.224   5.375   6.034
 5352WAT     H216459   6.224   5.319   5.894
 5353WAT      O16460   0.228   0.094   4.693
 5353WAT     H116461   0.286   0.067   4.622
 5353WAT     H216462   0.278   0.161   4.740
 5354WAT      O16463   4.714   1.073   3.922
 5354WAT     H116464   4.621   1.085   3.907
 5354WAT     H216465   4.752   1.160   3.909
 5355WAT      O16466   6.433   1.305   2.464
 5355WAT     H116467   6.384   1.366   2.518
 5355WAT     H216468   6.463   1.357   2.389
 5356WAT      O16469   1.175   0.927   3.514
 5356WAT     H116470   1.082   0.941   3.532
 5356WAT     H216471   1.177   0.865   3.441
 5357WAT      O16472   5.634   0.985   5.452
 5357WAT     H116473   5.670   0.900   5.475
 5357WAT     H216474   5.555   0.993   5.505
 5358WAT      O16475   5.674   0.994   3.275
 5358WAT     H116476   5.590   1.033   3.251
 5358WAT     H216477   5.689   0.928   3.207
 5359WAT      O16478   3.409   2.650   6.214
 5359WAT     H116479   3.345   2.584   6.187
 5359WAT     H216480   3.438   2.691   6.133
 5360WAT      O16481   2.485   4.046   4.249
 5360WAT     H116482   2.496   3.952   4.263
 5360WAT     H216483   2.563   4.072   4.199
 5361WAT      O16484   0.045   0.640   5.919
 5361WAT     H116485   0.036   0.684   5.835
 5361WAT     H216486   0.006   0.553   5.905
 5362WAT      O16487   4.617   4.910   2.226
 5362WAT     H116488   4.572   4.969   2.165
 5362WAT     H216489   4.574   4.825   2.213
 5363WAT      O16490   4.411   4.706   1.134
 5363WAT     H116491   4.435   4.795   1.158
 5363WAT     H216492   4.379   4.667   1.216
 5364WAT      O16493   6.451   3.221   0.143
 5364WAT     H116494   6.515   3.292   0.142
 5364WAT     H216495   6.445   3.193   0.052
 5365WAT      O16496   0.351   7.098   1.350
 5365WAT     H116497   0.350   7.140   1.264
 5365WAT     H216498   0.427   7.040   1.347
 5366WAT      O16499   4.678   0.152   2.890
 5366WAT     H116500   4.680   0.090   2.817
 5366WAT     H216501   4.746   0.216   2.869
 5367WAT      O16502   5.644   4.257   1.278
 5367WAT     H116503   5.674   4.313   1.350
 5367WAT     H216504   5.548   4.258   1.286
 5368WAT      O16505   4.923   0.965   1.539
 5368WAT     H116506   4.979   0.894   1.570
 5368WAT     H216507   4.839   0.950   1.583
 5369WAT      O16508   3.367   7.180   5.819
 5369WAT     H116509   3.391   7.142   5.904
 5369WAT     H216510   3.440   7.236   5.795
 5370WAT      O16511   0.405   3.235   5.701
 5370WAT     H116512   0.374   3.194   5.781
 5370WAT     H216513   0.441   3.164   5.649
 5371WAT      O16514   2.118   7.050   1.035
 5371WAT     H116515   2.056   7.070   0.965
 5371WAT     H216516   2.204   7.058   0.993
 5372WAT      O16517   3.376   2.494   1.621
 5372WAT     H116518   3.292   2.537   1.636
 5372WAT     H216519   3.372   2.465   1.530
 5373WAT      O16520   1.741   3.951   0.861
 5373WAT     H116521   1.686   3.907   0.796
 5373WAT     H216522   1.694   3.939   0.944
 5374WAT      O16523   0.064   3.478   2.730
 5374WAT     H116524   0.122   3.407   2.758
 5374WAT     H216525   0.041   3.523   2.811
 5375WAT      O16526   4.496   3.195   2.577
 5375WAT     H116527   4.580   3.236   2.557
 5375WAT     H216528   4.440   3.218   2.502
 5376WAT      O16529   6.681   0.462   5.579
 5376WAT     H116530   6.679   0.558   5.572
 5376WAT     H216531   6.596   0.434   5.545
 5377WAT      O16532   4.427   2.256   0.151
 5377WAT     H116533   4.399   2.166   0.136
 5377WAT     H216534   4.362   2.310   0.106
 5378WAT      O16535   0.803   1.948   2.497
 5378WAT     H116536   0.762   2.014   2.441
 5378WAT     H216537   0.893   1.940   2.464
 5379WAT      O16538   1.379   3.094   1.308
 5379WAT     H116539   1.313   3.156   1.279
 5379WAT     H216540   1.439   3.087   1.234
 5380WAT      O16541   4.504   6.869   4.776
 5380WAT     H116542   4.473   6.820   4.700
 5380WAT     H216543   4.588   6.905   4.748
 5381WAT      O16544   6.379   1.732   6.049
 5381WAT     H116545   6.370   1.640   6.074
 5381WAT     H216546   6.472   1.751   6.059
 5382WAT      O16547   6.653   3.068   1.574
 5382WAT     H116548   6.687   3.147   1.532
 5382WAT     H216549   6.558   3.076   1.568
 5383WAT      O16550   1.768   0.216   4.324
 5383WAT     H116551   1.773   0.238   4.231
 5383WAT     H216552   1.733   0.295   4.366
 5384WAT      O16553   4.459   6.265   3.400
 5384WAT     H116554   4.528   6.325   3.371
 5384WAT     H216555   4.379   6.317   3.395
 5385WAT      O16556   3.052   2.053   2.836
 5385WAT     H116557   3.036   2.073   2.744
 5385WAT     H216558   3.093   1.967   2.836
 5386WAT      O16559   5.250   5.150   3.001
 5386WAT     H116560   5.159   5.176   3.002
 5386WAT     H216561   5.253   5.076   2.940
 5387WAT      O16562   6.178   1.069   0.972
 5387WAT     H116563   6.133   1.029   0.897
 5387WAT     H216564   6.260   1.103   0.936
 5388WAT      O16565   4.886   4.502   5.098
 5388WAT     H116566   4.934   4.419   5.088
 5388WAT     H216567   4.825   4.504   5.025
 5389WAT      O16568   0.842   4.070   0.556
 5389WAT     H116569   0.754   4.090   0.522
 5389WAT     H216570   0.889   4.153   0.549
 5390WAT      O16571   7.513   4.423   2.178
 5390WAT     H116572   7.577   4.477   2.224
 5390WAT     H216573   7.538   4.429   2.086
 5391WAT      O16574   6.924   0.469   0.326
 5391WAT     H116575   6.871   0.390   0.313
 5391WAT     H216576   6.978   0.449   0.403
 5392WAT      O16577   1.014   5.277   1.154
 5392WAT     H116578   1.055   5.298   1.070
 5392WAT     H216579   0.950   5.346   1.167
 5393WAT      O16580   7.544   1.635   2.307
 5393WAT     H116581   7.515   1.563   2.364
 5393WAT     H216582   7.557   1.708   2.367
 5394WAT      O16583   4.693   4.842   1.571
 5394WAT     H116584   4.660   4.893   1.644
 5394WAT     H216585   4.665   4.890   1.493
 5395WAT      O16586   6.796   3.285   1.494
 5395WAT     H116587   6.875   3.235   1.473
 5395WAT     H216588   6.826   3.376   1.502
 5396WAT      O16589   6.749   1.536   3.738
 5396WAT     H116590   6.729   1.570   3.651
 5396WAT     H216591   6.844   1.546   3.746
 5397WAT      O16592   1.864   0.280   5.161
 5397WAT     H116593   1.899   0.221   5.228
 5397WAT     H216594   1.824   0.222   5.096
 5398WAT      O16595   1.978   7.143   4.354
 5398WAT     H116596   1.943   7.154   4.265
 5398WAT     H216597   2.037   7.069   4.347
 5399WAT      O16598   1.785   4.331   3.614
 5399WAT     H116599   1.873   4.351   3.648
 5399WAT     H216600   1.789   4.355   3.522
 5400WAT      O16601   5.469   1.553   1.049
 5400WAT     H116602   5.423   1.472   1.029
 5400WAT     H216603   5.548   1.549   0.996
 5401WAT      O16604   4.068   2.216   1.558
 5401WAT     H116605   4.052   2.240   1.467
 5401WAT     H216606   4.047   2.122   1.562
 5402WAT      O16607   0.531   0.379   0.721
 5402WAT     H116608   0.570   0.301   0.682
 5402WAT     H216609   0.533   0.444   0.651
 5403WAT      O16610   3.489   5.527   2.775
 5403WAT     H116611   3.433   5.529   2.697
 5403WAT     H216612   3.542   5.448   2.763
 5404WAT      O16613   4.788   1.499   1.556
 5404WAT     H116614   4.748   1.573   1.600
 5404WAT     H216615   4.772   1.515   1.463
 5405WAT      O16616   2.409   0.816   5.674
 5405WAT     H116617   2.394   0.879   5.744
 5405WAT     H216618   2.396   0.731   5.715
 5406WAT      O16619   4.672   7.084   4.400
 5406WAT     H116620   4.675   7.099   4.305
 5406WAT     H216621   4.583   7.108   4.426
 5407WAT      O16622   3.523   4.742   0.946
 5407WAT     H116623   3.562   4.804   1.008
 5407WAT     H216624   3.587   4.671   0.940
 5408WAT      O16625   3.378   0.346   2.922
 5408WAT     H116626   3.374   0.438   2.947
 5408WAT     H216627   3.384   0.347   2.827
 5409WAT      O16628   1.700   5.145   0.619
 5409WAT     H116629   1.770   5.170   0.560
 5409WAT     H216630   1.726   5.181   0.704
 5410WAT      O16631   0.047   6.629   5.566
 5410WAT     H116632  -0.049   6.623   5.565
 5410WAT     H216633   0.076   6.547   5.526
 5411WAT      O16634   2.893   1.972   0.625
 5411WAT     H116635   2.932   1.971   0.537
 5411WAT     H216636   2.919   1.888   0.663
 5412WAT      O16637   5.673   1.136   2.885
 5412WAT     H116638   5.702   1.068   2.824
 5412WAT     H216639   5.633   1.202   2.830
 5413WAT      O16640   5.067   0.052   3.460
 5413WAT     H116641   5.021   0.055   3.376
 5413WAT     H216642   5.025  -0.020   3.508
 5414WAT      O16643   1.398   2.839   3.860
 5414WAT     H116644   1.339   2.887   3.918
 5414WAT     H216645   1.350   2.758   3.839
 5415WAT      O16646   7.531   0.370   3.084
 5415WAT     H116647   7.457   0.430   3.070
 5415WAT     H216648   7.609   0.426   3.076
 5416WAT      O16649   2.279   7.109   5.808
 5416WAT     H116650   2.252   7.020   5.786
 5416WAT     H216651   2.233   7.164   5.744
 5417WAT      O16652   0.256   1.409   3.011
 5417WAT     H116653   0.332   1.449   2.969
 5417WAT     H216654   0.216   1.357   2.941
 5418WAT      O16655   5.512   2.746   5.550
 5418WAT     H116656   5.556   2.806   5.610
 5418WAT     H216657   5.419   2.752   5.573
 5419WAT      O16658   1.885   1.298   0.259
 5419WAT     H116659   1.955   1.261   0.312
 5419WAT     H216660   1.867   1.231   0.193
 5420WAT      O16661   4.972   7.121   4.368
 5420WAT     H116662   4.876   7.112   4.363
 5420WAT     H216663   5.002   7.033   4.393
 5421WAT      O16664   1.612   3.565   3.334
 5421WAT     H116665   1.624   3.623   3.259
 5421WAT     H216666   1.697   3.563   3.377
 5422WAT      O16667   6.676   0.739   1.877
 5422WAT     H116668   6.658   0.678   1.806
 5422WAT     H216669   6.637   0.822   1.847
 5423WAT      O16670   0.500   0.614   4.584
 5423WAT     H116671   0.495   0.676   4.511
 5423WAT     H216672   0.478   0.667   4.661
 5424WAT      O16673   0.139   6.032   0.344
 5424WAT     H116674   0.220   5.980   0.347
 5424WAT     H216675   0.158   6.103   0.283
 5425WAT      O16676   5.705   0.815   3.084
 5425WAT     H116677   5.764   0.780   3.017
 5425WAT     H216678   5.618   0.810   3.045
 5426WAT      O16679   0.744   3.736   1.092
 5426WAT     H116680   0.694   3.788   1.029
 5426WAT     H216681   0.702   3.650   1.090
 5427WAT      O16682   6.631   5.096   2.259
 5427WAT     H116683   6.657   5.038   2.330
 5427WAT     H216684   6.632   5.183   2.298
 5428WAT      O16685   4.157   5.895   3.122
 5428WAT     H116686   4.066   5.909   3.096
 5428WAT     H216687   4.169   5.800   3.118
 5429WAT      O16688   4.572   3.562   1.506
 5429WAT     H116689   4.573   3.475   1.467
 5429WAT     H216690   4.479   3.586   1.508
 5430WAT      O16691   0.597   6.051   2.080
 5430WAT     H116692   0.658   6.118   2.048
 5430WAT     H216693   0.608   5.978   2.019
 5431WAT      O16694   5.291   4.951   2.811
 5431WAT     H116695   5.354   5.017   2.782
 5431WAT     H216696   5.223   4.952   2.744
 5432WAT      O16697   4.545   0.609   2.860
 5432WAT     H116698   4.453   0.634   2.861
 5432WAT     H216699   4.575   0.630   2.772
 5433WAT      O16700   2.154   6.594   0.987
 5433WAT     H116701   2.091   6.575   0.917
 5433WAT     H216702   2.231   6.542   0.963
 5434WAT      O16703   7.480   2.149   0.552
 5434WAT     H116704   7.533   2.111   0.481
 5434WAT     H216705   7.390   2.140   0.521
 5435WAT      O16706   4.609   3.822   5.548
 5435WAT     H116707   4.566   3.823   5.633
 5435WAT     H216708   4.644   3.911   5.538
 5436WAT      O16709   6.717   6.326   1.207
 5436WAT     H116710   6.733   6.336   1.113
 5436WAT     H216711   6.629   6.361   1.220
 5437WAT      O16712   3.924   5.945   5.846
 5437WAT     H116713   3.902   5.913   5.759
 5437WAT     H216714   4.013   5.913   5.862
 5438WAT      O16715   3.818   6.948   0.374
 5438WAT     H116716   3.790   6.890   0.303
 5438WAT     H216717   3.914   6.946   0.370
 5439WAT      O16718   1.443   6.066   5.684
 5439WAT     H116719   1.350   6.080   5.704
 5439WAT     H216720   1.488   6.083   5.767
 5440WAT      O16721   6.225   6.815   3.507
 5440WAT     H116722   6.318   6.839   3.513
 5440WAT     H216723   6.203   6.828   3.415
 5441WAT      O16724   1.678   4.035   2.066
 5441WAT     H116725   1.608   4.042   2.002
 5441WAT     H216726   1.694   4.126   2.094
 5442WAT      O16727   2.202   3.011   2.607
 5442WAT     H116728   2.143   3.081   2.580
 5442WAT     H216729   2.253   2.991   2.528
 5443WAT      O16730   4.187   2.003   2.710
 5443WAT     H116731   4.239   1.931   2.675
 5443WAT     H216732   4.148   2.043   2.632
 5444WAT      O16733   1.160   1.129   6.202
 5444WAT     H116734   1.190   1.168   6.284
 5444WAT     H216735   1.232   1.145   6.140
 5445WAT      O16736   2.364   1.973   5.871
 5445WAT     H116737   2.296   2.032   5.905
 5445WAT     H216738   2.446   2.021   5.886
 5446WAT      O16739   7.046   3.925   6.177
 5446WAT     H116740   7.104   3.859   6.139
 5446WAT     H216741   6.996   3.959   6.103
 5447WAT      O16742   3.462   2.774   5.975
 5447WAT     H116743   3.520   2.719   5.922
 5447WAT     H216744   3.390   2.795   5.916
 5448WAT      O16745   4.598   3.247   1.523
 5448WAT     H116746   4.688   3.273   1.504
 5448WAT     H216747   4.563   3.218   1.439
 5449WAT      O16748   3.797   6.419   1.948
 5449WAT     H116749   3.830   6.498   1.904
 5449WAT     H216750   3.875   6.376   1.982
 5450WAT      O16751   2.307   7.180   0.242
 5450WAT     H116752   2.271   7.268   0.234
 5450WAT     H216753   2.367   7.172   0.168
 5451WAT      O16754   3.083   1.787   1.953
 5451WAT     H116755   3.012   1.847   1.934
 5451WAT     H216756   3.145   1.800   1.881
 5452WAT      O16757   5.471   6.973   0.002
 5452WAT     H116758   5.506   7.014   0.081
 5452WAT     H216759   5.523   7.010  -0.069
 5453WAT      O16760   6.833   1.429   0.490
 5453WAT     H116761   6.797   1.518   0.496
 5453WAT     H216762   6.897   1.434   0.419
 5454WAT      O16763   0.919   5.487   6.161
 5454WAT     H116764   0.903   5.404   6.116
 5454WAT     H216765   0.978   5.465   6.232
 5455WAT      O16766   1.573   4.153   3.979
 5455WAT     H116767   1.626   4.124   4.054
 5455WAT     H216768   1.622   4.124   3.902
 5456WAT      O16769   7.283   2.773   1.442
 5456WAT     H116770   7.316   2.738   1.359
 5456WAT     H216771   7.311   2.865   1.441
 5457WAT      O16772   2.174   6.826   5.340
 5457WAT     H116773   2.105   6.765   5.315
 5457WAT     H216774   2.215   6.851   5.256
 5458WAT      O16775   6.617   5.967   4.502
 5458WAT     H116776   6.572   5.893   4.461
 5458WAT     H216777   6.548   6.015   4.547
 5459WAT      O16778   6.192   0.837   1.521
 5459WAT     H116779   6.169   0.924   1.553
 5459WAT     H216780   6.120   0.781   1.551
 5460WAT      O16781   2.305   1.335   6.134
 5460WAT     H116782   2.330   1.269   6.200
 5460WAT     H216783   2.219   1.306   6.103
 5461WAT      O16784   3.071   5.428   4.582
 5461WAT     H116785   3.154   5.391   4.611
 5461WAT     H216786   3.042   5.369   4.512
 5462WAT      O16787   4.920   6.915   2.110
 5462WAT     H116788   4.914   6.820   2.104
 5462WAT     H216789   4.832   6.946   2.086
 5463WAT      O16790   1.735   2.165   5.756
 5463WAT     H116791   1.741   2.078   5.715
 5463WAT     H216792   1.655   2.161   5.809
 5464WAT      O16793   2.794   3.460   6.135
 5464WAT     H116794   2.749   3.540   6.160
 5464WAT     H216795   2.809   3.468   6.041
 5465WAT      O16796   1.954   1.567   3.482
 5465WAT     H116797   1.877   1.571   3.537
 5465WAT     H216798   1.980   1.475   3.483
 5466WAT      O16799   2.595   4.452   6.201
 5466WAT     H116800   2.579   4.369   6.155
 5466WAT     H216801   2.559   4.518   6.142
 5467WAT      O16802   3.773   6.125   3.909
 5467WAT     H116803   3.826   6.088   3.838
 5467WAT     H216804   3.751   6.213   3.878
 5468WAT      O16805   2.802   1.457   5.671
 5468WAT     H116806   2.720   1.408   5.660
 5468WAT     H216807   2.793   1.532   5.612
 5469WAT      O16808   3.702   0.705   5.735
 5469WAT     H116809   3.738   0.651   5.806
 5469WAT     H216810   3.778   0.749   5.697
 5470WAT      O16811   0.844   0.986   5.715
 5470WAT     H116812   0.780   1.057   5.728
 5470WAT     H216813   0.842   0.969   5.621
 5471WAT      O16814   3.602   3.241   4.178
 5471WAT     H116815   3.669   3.173   4.169
 5471WAT     H216816   3.637   3.315   4.130
 5472WAT      O16817   1.977   2.341   4.578
 5472WAT     H116818   1.975   2.389   4.661
 5472WAT     H216819   1.991   2.409   4.512
 5473WAT      O16820   1.656   3.869   2.294
 5473WAT     H116821   1.698   3.813   2.229
 5473WAT     H216822   1.605   3.932   2.242
 5474WAT      O16823   3.965   1.164   4.944
 5474WAT     H116824   4.010   1.241   4.910
 5474WAT     H216825   4.033   1.097   4.953
 5475WAT      O16826   5.740   4.912   2.667
 5475WAT     H116827   5.764   5.000   2.635
 5475WAT     H216828   5.726   4.861   2.588
 5476WAT      O16829   7.209   5.405   0.449
 5476WAT     H116830   7.197   5.402   0.354
 5476WAT     H216831   7.209   5.499   0.470
 5477WAT      O16832   6.058   4.073   2.374
 5477WAT     H116833   6.061   4.159   2.332
 5477WAT     H216834   6.147   4.039   2.366
 5478WAT      O16835   3.501   1.418   3.788
 5478WAT     H116836   3.478   1.404   3.696
 5478WAT     H216837   3.456   1.348   3.834
 5479WAT      O16838   4.938   5.756   4.025
 5479WAT     H116839   4.882   5.726   4.097
 5479WAT     H216840   4.905   5.710   3.948
 5480WAT      O16841   5.758   5.259   2.112
 5480WAT     H116842   5.822   5.217   2.055
 5480WAT     H216843   5.809   5.286   2.189
 5481WAT      O16844   2.353   2.060   3.912
 5481WAT     H116845   2.363   2.058   3.817
 5481WAT     H216846   2.372   1.971   3.941
 5482WAT      O16847   0.569   5.310   5.006
 5482WAT     H116848   0.520   5.346   4.932
 5482WAT     H216849   0.620   5.238   4.969
 5483WAT      O16850   1.828   0.631   1.120
 5483WAT     H116851   1.843   0.721   1.149
 5483WAT     H216852   1.909   0.605   1.077
 5484WAT      O16853   4.246   1.472   1.624
 5484WAT     H116854   4.195   1.513   1.554
 5484WAT     H216855   4.231   1.529   1.700
 5485WAT      O16856   4.313   7.066   5.474
 5485WAT     H116857   4.273   7.065   5.561
 5485WAT     H216858   4.324   6.974   5.451
 5486WAT      O16859   6.928   0.026   2.104
 5486WAT     H116860   6.973   0.061   2.028
 5486WAT     H216861   6.909  -0.066   2.082
 5487WAT      O16862   5.736   5.390   0.091
 5487WAT     H116863   5.789   5.312   0.102
 5487WAT     H216864   5.721   5.395  -0.004
 5488WAT      O16865   5.895   0.136   1.192
 5488WAT     H116866   5.885   0.052   1.147
 5488WAT     H216867   5.962   0.182   1.142
 5489WAT      O16868   0.771   0.810   4.305
 5489WAT     H116869   0.793   0.735   4.360
 5489WAT     H216870   0.739   0.877   4.366
 5490WAT      O16871   1.933   2.398   2.444
 5490WAT     H116872   1.877   2.345   2.388
 5490WAT     H216873   1.954   2.475   2.391
 5491WAT      O16874   3.604   4.520   1.262
 5491WAT     H116875   3.662   4.476   1.200
 5491WAT     H216876   3.522   4.470   1.258
 5492WAT      O16877   6.203   5.567   6.106
 5492WAT     H116878   6.238   5.622   6.176
 5492WAT     H216879   6.198   5.625   6.030
 5493WAT      O16880   5.728   2.626   3.535
 5493WAT     H116881   5.710   2.710   3.576
 5493WAT     H216882   5.806   2.641   3.482
 5494WAT      O16883   1.687   4.491   1.489
 5494WAT     H116884   1.762   4.548   1.505
 5494WAT     H216885   1.655   4.518   1.403
 5495WAT      O16886   2.982   0.500   0.464
 5495WAT     H116887   3.070   0.470   0.441
 5495WAT     H216888   2.939   0.515   0.380
 5496WAT      O16889   2.646   3.219   1.409
 5496WAT     H116890   2.586   3.162   1.360
 5496WAT     H216891   2.657   3.296   1.353
 5497WAT      O16892   1.004   0.773   1.922
 5497WAT     H116893   0.915   0.784   1.887
 5497WAT     H216894   1.010   0.680   1.943
 5498WAT      O16895   7.453   6.209   3.367
 5498WAT     H116896   7.442   6.214   3.462
 5498WAT     H216897   7.364   6.203   3.332
 5499WAT      O16898   6.184   0.818   4.947
 5499WAT     H116899   6.186   0.860   5.033
 5499WAT     H216900   6.276   0.810   4.922
 5500WAT      O16901   0.245   4.608   5.782
 5500WAT     H116902   0.336   4.600   5.752
 5500WAT     H216903   0.207   4.522   5.767
 5501WAT      O16904   5.227   0.019   5.144
 5501WAT     H116905   5.233  -0.015   5.055
 5501WAT     H216906   5.141   0.061   5.148
 5502WAT      O16907   2.099   2.026   2.430
 5502WAT     H116908   2.133   2.114   2.418
 5502WAT     H216909   2.006   2.038   2.448
 5503WAT      O16910   3.447   2.610   1.137
 5503WAT     H116911   3.504   2.533   1.138
 5503WAT     H216912   3.490   2.673   1.194
 5504WAT      O16913   5.365   3.401   1.397
 5504WAT     H116914   5.341   3.411   1.489
 5504WAT     H216915   5.296   3.447   1.349
 5505WAT      O16916   6.894   1.670   6.038
 5505WAT     H116917   6.919   1.606   5.972
 5505WAT     H216918   6.909   1.755   5.997
 5506WAT      O16919   3.713   0.514   0.998
 5506WAT     H116920   3.784   0.453   0.978
 5506WAT     H216921   3.746   0.599   0.972
 5507WAT      O16922   3.652   3.686   5.961
 5507WAT     H116923   3.660   3.591   5.959
 5507WAT     H216924   3.721   3.717   5.904
 5508WAT      O16925   2.435   1.917   3.651
 5508WAT     H116926   2.473   1.842   3.605
 5508WAT     H216927   2.355   1.937   3.601
 5509WAT      O16928   5.936   2.691   5.938
 5509WAT     H116929   5.912   2.775   5.899
 5509WAT     H216930   5.965   2.638   5.864
 5510WAT      O16931   5.728   2.483   0.179
 5510WAT     H116932   5.652   2.537   0.158
 5510WAT     H216933   5.795   2.510   0.117
 5511WAT      O16934   4.735   4.258   4.360
 5511WAT     H116935   4.746   4.163   4.357
 5511WAT     H216936   4.812   4.293   4.314
 5512WAT      O16937   2.054   3.806   0.669
 5512WAT     H116938   2.116   3.782   0.601
 5512WAT     H216939   2.099   3.786   0.751
 5513WAT      O16940   3.278   1.065   5.053
 5513WAT     H116941   3.304   1.090   5.142
 5513WAT     H216942   3.303   0.973   5.047
 5514WAT      O16943   5.424   3.329   4.816
 5514WAT     H116944   5.376   3.289   4.743
 5514WAT     H216945   5.513   3.340   4.781
 5515WAT      O16946   6.142   1.718   5.403
 5515WAT     H116947   6.182   1.792   5.356
 5515WAT     H216948   6.056   1.707   5.363
 5516WAT      O16949   7.033   0.655   6.032
 5516WAT     H116950   7.034   0.733   5.977
 5516WAT     H216951   7.055   0.688   6.120
 5517WAT      O16952   2.946   3.233   4.534
 5517WAT     H116953   2.899   3.219   4.451
 5517WAT     H216954   2.928   3.324   4.557
 5518WAT      O16955   0.143   2.884   3.185
 5518WAT     H116956   0.224   2.924   3.153
 5518WAT     H216957   0.119   2.821   3.118
 5519WAT      O16958   6.416   3.296   1.144
 5519WAT     H116959   6.432   3.231   1.076
 5519WAT     H216960   6.354   3.358   1.105
 5520WAT      O16961   4.921   2.219   4.898
 5520WAT     H116962   4.833   2.248   4.876
 5520WAT     H216963   4.916   2.193   4.990
 5521WAT      O16964   2.998   6.259   4.185
 5521WAT     H116965   2.915   6.245   4.230
 5521WAT     H216966   2.986   6.218   4.099
 5522WAT      O16967   4.659   4.799   0.656
 5522WAT     H116968   4.616   4.748   0.724
 5522WAT     H216969   4.590   4.855   0.621
 5523WAT      O16970   6.353   3.846   4.782
 5523WAT     H116971   6.262   3.860   4.755
 5523WAT     H216972   6.352   3.856   4.877
 5524WAT      O16973   1.571   1.516   4.266
 5524WAT     H116974   1.561   1.428   4.229
 5524WAT     H216975   1.634   1.560   4.208
 5525WAT      O16976   5.514   2.694   4.947
 5525WAT     H116977   5.438   2.748   4.926
 5525WAT     H216978   5.496   2.609   4.907
 5526WAT      O16979   4.970   0.188   4.476
 5526WAT     H116980   4.938   0.105   4.439
 5526WAT     H216981   5.030   0.221   4.409
 5527WAT      O16982   5.046   0.094   0.253
 5527WAT     H116983   5.106   0.165   0.276
 5527WAT     H216984   5.099   0.015   0.257
 5528WAT      O16985   7.536   6.952   0.125
 5528WAT     H116986   7.601   6.882   0.122
 5528WAT     H216987   7.476   6.926   0.195
 5529WAT      O16988   6.225   5.396   5.717
 5529WAT     H116989   6.175   5.474   5.693
 5529WAT     H216990   6.239   5.350   5.634
 5530WAT      O16991   1.483   2.396   4.677
 5530WAT     H116992   1.533   2.359   4.750
 5530WAT     H216993   1.481   2.326   4.612
 5531WAT      O16994   5.638   0.211   1.291
 5531WAT     H116995   5.711   0.151   1.272
 5531WAT     H216996   5.660   0.291   1.244
 5532WAT      O16997   2.845   0.918   0.133
 5532WAT     H116998   2.921   0.886   0.182
 5532WAT     H216999   2.863   0.893   0.043
 5533WAT      O17000   1.283   6.975   4.873
 5533WAT     H117001   1.202   7.023   4.891
 5533WAT     H217002   1.284   6.964   4.778
 5534WAT      O17003   6.913   1.734   0.455
 5534WAT     H117004   6.910   1.701   0.365
 5534WAT     H217005   6.851   1.807   0.455
 5535WAT      O17006   1.477   4.786   4.093
 5535WAT     H117007   1.561   4.820   4.124
 5535WAT     H217008   1.500   4.720   4.027
 5536WAT      O17009   5.292   6.601   2.931
 5536WAT     H117010   5.215   6.622   2.877
 5536WAT     H217011   5.365   6.600   2.869
 5537WAT      O17012   4.673   2.235   5.906
 5537WAT     H117013   4.624   2.279   5.975
 5537WAT     H217014   4.620   2.158   5.884
 5538WAT      O17015   5.321   3.627   2.178
 5538WAT     H117016   5.247   3.609   2.120
 5538WAT     H217017   5.294   3.702   2.229
 5539WAT      O17018   5.140   4.980   3.708
 5539WAT     H117019   5.158   5.066   3.671
 5539WAT     H217020   5.126   4.924   3.633
 5540WAT      O17021   4.404   6.258   2.581
 5540WAT     H117022   4.344   6.242   2.654
 5540WAT     H217023   4.384   6.347   2.553
 5541WAT      O17024   4.854   3.027   3.580
 5541WAT     H117025   4.936   3.016   3.531
 5541WAT     H217026   4.786   3.000   3.519
 5542WAT      O17027   3.229   1.052   3.159
 5542WAT     H117028   3.145   1.076   3.119
 5542WAT     H217029   3.222   1.083   3.249
 5543WAT      O17030   1.806   4.871   3.533
 5543WAT     H117031   1.731   4.843   3.585
 5543WAT     H217032   1.785   4.842   3.444
 5544WAT      O17033   7.362   1.567   0.804
 5544WAT     H117034   7.324   1.537   0.721
 5544WAT     H217035   7.418   1.495   0.833
 5545WAT      O17036   1.987   3.203   2.529
 5545WAT     H117037   2.025   3.213   2.442
 5545WAT     H217038   1.898   3.238   2.521
 5546WAT      O17039   2.373   2.350   5.376
 5546WAT     H117040   2.282   2.378   5.372
 5546WAT     H217041   2.424   2.427   5.352
 5547WAT      O17042   6.547   3.896   4.605
 5547WAT     H117043   6.485   3.895   4.678
 5547WAT     H217044   6.633   3.902   4.646
 5548WAT      O17045   6.501   5.760   4.008
 5548WAT     H117046   6.585   5.798   3.981
 5548WAT     H217047   6.521   5.670   4.031
 5549WAT      O17048   3.373   2.586   1.938
 5549WAT     H117049   3.373   2.576   1.843
 5549WAT     H217050   3.310   2.521   1.969
 5550WAT      O17051   1.243   5.168   3.849
 5550WAT     H117052   1.238   5.111   3.772
 5550WAT     H217053   1.255   5.107   3.922
 5551WAT      O17054   7.020   4.714   0.987
 5551WAT     H117055   7.052   4.704   0.898
 5551WAT     H217056   6.970   4.796   0.985
 5552WAT      O17057   4.035   2.987   5.082
 5552WAT     H117058   4.050   3.074   5.044
 5552WAT     H217059   3.949   2.961   5.050
 5553WAT      O17060   5.041   0.212   2.190
 5553WAT     H117061   5.064   0.168   2.109
 5553WAT     H217062   5.047   0.144   2.257
 5554WAT      O17063   7.095   4.323   4.189
 5554WAT     H117064   7.120   4.340   4.098
 5554WAT     H217065   7.063   4.233   4.189
 5555WAT      O17066   3.442   3.116   0.517
 5555WAT     H117067   3.453   3.045   0.580
 5555WAT     H217068   3.369   3.167   0.551
 5556WAT      O17069   1.413   4.496   2.513
 5556WAT     H117070   1.462   4.508   2.595
 5556WAT     H217071   1.481   4.496   2.446
 5557WAT      O17072   0.428   3.270   5.393
 5557WAT     H117073   0.425   3.303   5.303
 5557WAT     H217074   0.475   3.187   5.387
 5558WAT      O17075   0.954   4.109   5.839
 5558WAT     H117076   1.026   4.130   5.780
 5558WAT     H217077   0.880   4.160   5.806
 5559WAT      O17078   1.249   1.701   2.601
 5559WAT     H117079   1.318   1.766   2.589
 5559WAT     H217080   1.180   1.727   2.541
 5560WAT      O17081   1.970   1.949   4.987
 5560WAT     H117082   1.953   1.973   4.896
 5560WAT     H217083   1.884   1.937   5.026
 5561WAT      O17084   0.555   2.757   4.240
 5561WAT     H117085   0.566   2.776   4.146
 5561WAT     H217086   0.493   2.684   4.242
 5562WAT      O17087   3.628   1.782   5.956
 5562WAT     H117088   3.622   1.778   6.052
 5562WAT     H217089   3.721   1.770   5.937
 5563WAT      O17090   5.059   3.654   0.881
 5563WAT     H117091   5.139   3.603   0.874
 5563WAT     H217092   5.057   3.708   0.802
 5564WAT      O17093   0.263   4.296   1.198
 5564WAT     H117094   0.286   4.270   1.108
 5564WAT     H217095   0.187   4.242   1.220
 5565WAT      O17096   3.850   4.840   3.630
 5565WAT     H117097   3.834   4.757   3.585
 5565WAT     H217098   3.764   4.881   3.638
 5566WAT      O17099   3.781   5.477   4.670
 5566WAT     H117100   3.837   5.399   4.663
 5566WAT     H217101   3.791   5.522   4.586
 5567WAT      O17102   1.726   6.997   5.495
 5567WAT     H117103   1.741   7.086   5.464
 5567WAT     H217104   1.774   6.941   5.434
 5568WAT      O17105   6.238   0.036   0.777
 5568WAT     H117106   6.143   0.028   0.771
 5568WAT     H217107   6.253   0.125   0.809
 5569WAT      O17108   1.627   2.874   5.409
 5569WAT     H117109   1.568   2.830   5.471
 5569WAT     H217110   1.682   2.803   5.375
 5570WAT      O17111   6.947   2.374   3.212
 5570WAT     H117112   7.038   2.391   3.186
 5570WAT     H217113   6.929   2.286   3.179
 5571WAT      O17114   4.617   3.677   5.307
 5571WAT     H117115   4.602   3.722   5.391
 5571WAT     H217116   4.691   3.722   5.268
 5572WAT      O17117   4.621   4.926   2.597
 5572WAT     H117118   4.685   4.885   2.656
 5572WAT     H217119   4.582   4.853   2.550
 5573WAT      O17120   5.871   6.075   1.843
 5573WAT     H117121   5.860   6.032   1.928
 5573WAT     H217122   5.829   6.161   1.855
 5574WAT      O17123   5.643   1.587   3.884
 5574WAT     H117124   5.653   1.672   3.927
 5574WAT     H217125   5.593   1.534   3.946
 5575WAT      O17126   6.478   3.395   2.488
 5575WAT     H117127   6.481   3.433   2.400
 5575WAT     H217128   6.463   3.301   2.473
 5576WAT      O17129   5.545   6.183   3.179
 5576WAT     H117130   5.634   6.190   3.212
 5576WAT     H217131   5.535   6.258   3.119
 5577WAT      O17132   2.593   3.486   1.251
 5577WAT     H117133   2.500   3.492   1.273
 5577WAT     H217134   2.599   3.518   1.161
 5578WAT      O17135   6.258   5.543   1.543
 5578WAT     H117136   6.183   5.521   1.487
 5578WAT     H217137   6.280   5.633   1.517
 5579WAT      O17138   2.898   5.938   0.814
 5579WAT     H117139   2.920   6.008   0.753
 5579WAT     H217140   2.806   5.917   0.795
 5580WAT      O17141   1.393   2.026   3.435
 5580WAT     H117142   1.420   2.094   3.497
 5580WAT     H217143   1.342   1.964   3.488
 5581WAT      O17144   5.194   4.287   4.261
 5581WAT     H117145   5.159   4.375   4.274
 5581WAT     H217146   5.252   4.295   4.185
 5582WAT      O17147   2.098   0.480   2.386
 5582WAT     H117148   2.006   0.495   2.406
 5582WAT     H217149   2.105   0.386   2.372
 5583WAT      O17150   2.709   5.188   4.657
 5583WAT     H117151   2.802   5.195   4.682
 5583WAT     H217152   2.710   5.189   4.562
 5584WAT      O17153   0.023   5.792   2.549
 5584WAT     H117154   0.051   5.865   2.494
 5584WAT     H217155   0.099   5.734   2.553
 5585WAT      O17156   7.607   6.619   1.950
 5585WAT     H117157   7.537   6.583   1.896
 5585WAT     H217158   7.562   6.673   2.015
 5586WAT      O17159   2.071   5.101   1.280
 5586WAT     H117160   2.123   5.171   1.319
 5586WAT     H217161   1.985   5.111   1.319
 5587WAT      O17162   3.503   3.625   4.014
 5587WAT     H117163   3.482   3.712   4.047
 5587WAT     H217164   3.419   3.580   4.007
 5588WAT      O17165   1.947   7.169   2.628
 5588WAT     H117166   2.041   7.178   2.641
 5588WAT     H217167   1.936   7.083   2.587
 5589WAT      O17168   1.426   6.097   3.083
 5589WAT     H117169   1.477   6.059   3.154
 5589WAT     H217170   1.491   6.125   3.018
 5590WAT      O17171   2.605   3.065   1.955
 5590WAT     H117172   2.546   3.139   1.969
 5590WAT     H217173   2.568   3.020   1.878
 5591WAT      O17174   4.898   6.248   2.596
 5591WAT     H117175   4.887   6.155   2.616
 5591WAT     H217176   4.810   6.279   2.579
 5592WAT      O17177   0.192   5.646   1.446
 5592WAT     H117178   0.213   5.739   1.449
 5592WAT     H217179   0.141   5.635   1.365
 5593WAT      O17180   4.280   2.107   5.038
 5593WAT     H117181   4.362   2.060   5.021
 5593WAT     H217182   4.216   2.064   4.982
 5594WAT      O17183   5.286   5.757   2.723
 5594WAT     H117184   5.279   5.851   2.741
 5594WAT     H217185   5.369   5.748   2.677
 5595WAT      O17186   2.686   3.282   1.665
 5595WAT     H117187   2.669   3.253   1.576
 5595WAT     H217188   2.599   3.297   1.703
 5596WAT      O17189   2.044   6.616   2.175
 5596WAT     H117190   2.132   6.581   2.171
 5596WAT     H217191   2.013   6.613   2.085
 5597WAT      O17192   3.198   0.794   1.765
 5597WAT     H117193   3.283   0.820   1.730
 5597WAT     H217194   3.150   0.759   1.690
 5598WAT      O17195   7.291   5.134   5.463
 5598WAT     H117196   7.280   5.043   5.491
 5598WAT     H217197   7.374   5.134   5.414
 5599WAT      O17198   6.711   0.743   2.300
 5599WAT     H117199   6.675   0.680   2.238
 5599WAT     H217200   6.635   0.791   2.332
 5600WAT      O17201   4.714   2.619   3.137
 5600WAT     H117202   4.632   2.585   3.101
 5600WAT     H217203   4.777   2.610   3.065
 5601WAT      O17204   4.499   4.273   1.741
 5601WAT     H117205   4.551   4.195   1.721
 5601WAT     H217206   4.522   4.335   1.672
 5602WAT      O17207   2.414   6.370   1.255
 5602WAT     H117208   2.347   6.345   1.192
 5602WAT     H217209   2.441   6.288   1.296
 5603WAT      O17210   3.275   2.426   6.126
 5603WAT     H117211   3.349   2.405   6.070
 5603WAT     H217212   3.200   2.383   6.084
 5604WAT      O17213   6.631   1.412   3.345
 5604WAT     H117214   6.661   1.342   3.288
 5604WAT     H217215   6.705   1.473   3.350
 5605WAT      O17216   7.039   2.660   4.057
 5605WAT     H117217   6.946   2.681   4.044
 5605WAT     H217218   7.059   2.599   3.985
 5606WAT      O17219   7.440   6.423   5.690
 5606WAT     H117220   7.507   6.417   5.622
 5606WAT     H217221   7.416   6.516   5.691
 5607WAT      O17222   3.473   0.786   0.894
 5607WAT     H117223   3.457   0.699   0.858
 5607WAT     H217224   3.560   0.780   0.934
 5608WAT      O17225   2.171   4.959   5.467
 5608WAT     H117226   2.250   4.936   5.516
 5608WAT     H217227   2.194   5.039   5.420
 5609WAT      O17228   5.369   2.279   1.363
 5609WAT     H117229   5.428   2.319   1.299
 5609WAT     H217230   5.427   2.253   1.435
 5610WAT      O17231   4.923   6.462   6.208
 5610WAT     H117232   4.875   6.444   6.126
 5610WAT     H217233   4.919   6.557   6.217
 5611WAT      O17234   6.199   1.240   2.798
 5611WAT     H117235   6.141   1.198   2.862
 5611WAT     H217236   6.150   1.239   2.716
 5612WAT      O17237   4.408   5.779   1.827
 5612WAT     H117238   4.359   5.846   1.873
 5612WAT     H217239   4.450   5.825   1.755
 5613WAT      O17240   6.026   0.526   0.572
 5613WAT     H117241   6.102   0.475   0.599
 5613WAT     H217242   5.959   0.461   0.553
 5614WAT      O17243   0.525   1.100   3.208
 5614WAT     H117244   0.515   1.055   3.292
 5614WAT     H217245   0.579   1.042   3.156
 5615WAT      O17246   7.525   1.785   0.960
 5615WAT     H117247   7.495   1.738   0.882
 5615WAT     H217248   7.549   1.872   0.927
 5616WAT      O17249   2.015   5.795   1.827
 5616WAT     H117250   2.009   5.756   1.740
 5616WAT     H217251   1.952   5.747   1.880
 5617WAT      O17252   4.840   1.360   2.000
 5617WAT     H117253   4.809   1.448   1.979
 5617WAT     H217254   4.936   1.368   2.000
 5618WAT      O17255   6.756   5.572   0.401
 5618WAT     H117256   6.700   5.579   0.323
 5618WAT     H217257   6.750   5.480   0.427
 5619WAT      O17258   3.716   5.145   3.052
 5619WAT     H117259   3.697   5.052   3.041
 5619WAT     H217260   3.630   5.185   3.064
 5620WAT      O17261   1.089   1.279   0.302
 5620WAT     H117262   1.108   1.187   0.321
 5620WAT     H217263   1.168   1.312   0.260
 5621WAT      O17264   3.685   2.037   5.284
 5621WAT     H117265   3.648   2.077   5.362
 5621WAT     H217266   3.635   1.955   5.274
 5622WAT      O17267   1.821   1.417   1.989
 5622WAT     H117268   1.875   1.495   1.984
 5622WAT     H217269   1.859   1.357   1.925
 5623WAT      O17270   4.733   7.109   4.099
 5623WAT     H117271   4.682   7.111   4.018
 5623WAT     H217272   4.765   7.200   4.109
 5624WAT      O17273   0.025   1.213   5.858
 5624WAT     H117274   0.084   1.138   5.867
 5624WAT     H217275  -0.015   1.222   5.944
 5625WAT      O17276   2.135   4.199   4.498
 5625WAT     H117277   2.193   4.275   4.503
 5625WAT     H217278   2.155   4.159   4.414
 5626WAT      O17279   6.817   0.516   6.143
 5626WAT     H117280   6.731   0.548   6.117
 5626WAT     H217281   6.879   0.572   6.097
 5627WAT      O17282   3.143   4.390   6.189
 5627WAT     H117283   3.221   4.445   6.191
 5627WAT     H217284   3.121   4.384   6.096
 5628WAT      O17285   3.821   5.127   5.208
 5628WAT     H117286   3.884   5.056   5.216
 5628WAT     H217287   3.850   5.176   5.131
 5629WAT      O17288   7.561   3.872   0.771
 5629WAT     H117289   7.551   3.896   0.679
 5629WAT     H217290   7.583   3.954   0.815
 5630WAT      O17291   2.288   3.574   1.923
 5630WAT     H117292   2.262   3.666   1.916
 5630WAT     H217293   2.261   3.535   1.840
 5631WAT      O17294   4.868   0.336   2.819
 5631WAT     H117295   4.938   0.384   2.864
 5631WAT     H217296   4.845   0.391   2.745
 5632WAT      O17297   2.052   6.162   6.169
 5632WAT     H117298   2.100   6.086   6.135
 5632WAT     H217299   2.110   6.236   6.153
 5633WAT      O17300   2.463   0.184   0.693
 5633WAT     H117301   2.433   0.096   0.719
 5633WAT     H217302   2.515   0.168   0.615
 5634WAT      O17303   2.136   3.217   2.294
 5634WAT     H117304   2.223   3.249   2.315
 5634WAT     H217305   2.143   3.185   2.205
 5635WAT      O17306   5.164   5.146   5.366
 5635WAT     H117307   5.132   5.159   5.277
 5635WAT     H217308   5.245   5.198   5.371
 5636WAT      O17309   1.224   0.393   5.105
 5636WAT     H117310   1.225   0.309   5.059
 5636WAT     H217311   1.193   0.456   5.039
 5637WAT      O17312   6.513   2.128   0.961
 5637WAT     H117313   6.435   2.111   1.013
 5637WAT     H217314   6.491   2.203   0.906
 5638WAT      O17315   2.868   2.150   0.095
 5638WAT     H117316   2.823   2.100   0.163
 5638WAT     H217317   2.937   2.091   0.064
 5639WAT      O17318   4.558   4.444   4.622
 5639WAT     H117319   4.610   4.493   4.685
 5639WAT     H217320   4.517   4.512   4.568
 5640WAT      O17321   2.785   4.828   0.079
 5640WAT     H117322   2.707   4.866   0.120
 5640WAT     H217323   2.857   4.886   0.107
 5641WAT      O17324   5.165   2.164   2.520
 5641WAT     H117325   5.252   2.131   2.496
 5641WAT     H217326   5.104   2.098   2.486
 5642WAT      O17327   3.915   3.643   6.126
 5642WAT     H117328   3.833   3.649   6.078
 5642WAT     H217329   3.983   3.653   6.060
 5643WAT      O17330   4.863   5.124   5.370
 5643WAT     H117331   4.957   5.126   5.358
 5643WAT     H217332   4.851   5.132   5.465
 5644WAT      O17333   4.771   4.390   2.782
 5644WAT     H117334   4.698   4.406   2.722
 5644WAT     H217335   4.736   4.411   2.869
 5645WAT      O17336   7.023   1.468   4.608
 5645WAT     H117337   7.082   1.396   4.588
 5645WAT     H217338   6.950   1.458   4.547
 5646WAT      O17339   4.804   4.607   4.188
 5646WAT     H117340   4.727   4.661   4.203
 5646WAT     H217341   4.810   4.600   4.092
 5647WAT      O17342   2.980   5.626   2.158
 5647WAT     H117343   2.885   5.628   2.149
 5647WAT     H217344   3.009   5.713   2.131
 5648WAT      O17345   6.501   2.098   5.764
 5648WAT     H117346   6.507   2.081   5.858
 5648WAT     H217347   6.410   2.078   5.742
 5649WAT      O17348   5.013   4.770   6.144
 5649WAT     H117349   5.045   4.861   6.145
 5649WAT     H217350   5.055   4.732   6.066
 5650WAT      O17351   0.238   0.315   3.859
 5650WAT     H117352   0.225   0.385   3.795
 5650WAT     H217353   0.163   0.323   3.919
 5651WAT      O17354   3.774   5.960   4.411
 5651WAT     H117355   3.689   6.003   4.400
 5651WAT     H217356   3.796   5.927   4.324
 5652WAT      O17357   1.225   0.860   3.772
 5652WAT     H117358   1.234   0.898   3.685
 5652WAT     H217359   1.261   0.927   3.831
 5653WAT      O17360   4.220   7.181   1.679
 5653WAT     H117361   4.160   7.212   1.610
 5653WAT     H217362   4.273   7.114   1.636
 5654WAT      O17363   7.200   0.663   0.961
 5654WAT     H117364   7.128   0.719   0.992
 5654WAT     H217365   7.220   0.696   0.874
 5655WAT      O17366   3.842   0.717   0.301
 5655WAT     H117367   3.813   0.681   0.217
 5655WAT     H217368   3.892   0.795   0.278
 5656WAT      O17369   0.680   2.128   1.087
 5656WAT     H117370   0.722   2.210   1.113
 5656WAT     H217371   0.729   2.100   1.009
 5657WAT      O17372   1.910   4.350   1.622
 5657WAT     H117373   1.816   4.363   1.631
 5657WAT     H217374   1.939   4.425   1.570
 5658WAT      O17375   1.892   6.629   3.956
 5658WAT     H117376   1.881   6.581   3.874
 5658WAT     H217377   1.803   6.639   3.990
 5659WAT      O17378   3.388   3.737   1.135
 5659WAT     H117379   3.298   3.739   1.102
 5659WAT     H217380   3.408   3.644   1.147
 5660WAT      O17381   1.316   3.437   0.203
 5660WAT     H117382   1.320   3.342   0.213
 5660WAT     H217383   1.245   3.451   0.141
 5661WAT      O17384   5.117   3.514   2.025
 5661WAT     H117385   5.087   3.595   1.984
 5661WAT     H217386   5.090   3.446   1.964
 5662WAT      O17387   6.946   1.885   5.890
 5662WAT     H117388   6.936   1.978   5.909
 5662WAT     H217389   6.995   1.883   5.807
 5663WAT      O17390   4.882   1.069   2.735
 5663WAT     H117391   4.902   1.018   2.657
 5663WAT     H217392   4.936   1.148   2.726
 5664WAT      O17393   1.003   5.336   3.869
 5664WAT     H117394   1.083   5.284   3.879
 5664WAT     H217395   0.974   5.316   3.780
 5665WAT      O17396   4.059   4.445   6.034
 5665WAT     H117397   3.981   4.492   6.062
 5665WAT     H217398   4.103   4.420   6.115
 5666WAT      O17399   3.331   3.297   6.029
 5666WAT     H117400   3.362   3.335   5.946
 5666WAT     H217401   3.249   3.254   6.006
 5667WAT      O17402   3.724   2.887   3.943
 5667WAT     H117403   3.723   2.793   3.960
 5667WAT     H217404   3.685   2.897   3.856
 5668WAT      O17405   6.611   5.189   2.885
 5668WAT     H117406   6.559   5.118   2.923
 5668WAT     H217407   6.617   5.254   2.956
 5669WAT      O17408   4.563   2.285   3.721
 5669WAT     H117409   4.600   2.364   3.683
 5669WAT     H217410   4.554   2.305   3.814
 5670WAT      O17411   1.682   0.144   5.479
 5670WAT     H117412   1.610   0.115   5.535
 5670WAT     H217413   1.639   0.167   5.396
 5671WAT      O17414   0.719   4.514   0.329
 5671WAT     H117415   0.629   4.545   0.320
 5671WAT     H217416   0.711   4.432   0.379
 5672WAT      O17417   5.101   2.738   2.071
 5672WAT     H117418   5.126   2.730   1.979
 5672WAT     H217419   5.029   2.676   2.081
 5673WAT      O17420   2.424   0.910   0.284
 5673WAT     H117421   2.456   1.000   0.291
 5673WAT     H217422   2.503   0.856   0.289
 5674WAT      O17423   5.638   6.973   5.515
 5674WAT     H117424   5.590   6.937   5.440
 5674WAT     H217425   5.598   6.932   5.591
 5675WAT      O17426   0.564   0.958   5.948
 5675WAT     H117427   0.507   1.011   6.004
 5675WAT     H217428   0.509   0.934   5.874
 5676WAT      O17429   0.748   3.289   1.873
 5676WAT     H117430   0.787   3.328   1.795
 5676WAT     H217431   0.717   3.203   1.845
 5677WAT      O17432   4.877   2.285   1.577
 5677WAT     H117433   4.826   2.306   1.498
 5677WAT     H217434   4.968   2.300   1.551
 5678WAT      O17435   3.343   5.325   1.993
 5678WAT     H117436   3.288   5.315   1.915
 5678WAT     H217437   3.367   5.235   2.017
 5679WAT      O17438   2.434   6.340   5.502
 5679WAT     H117439   2.439   6.333   5.406
 5679WAT     H217440   2.491   6.414   5.523
 5680WAT      O17441   6.191   2.296   3.028
 5680WAT     H117442   6.118   2.248   3.067
 5680WAT     H217443   6.156   2.330   2.946
 5681WAT      O17444   5.741   2.667   2.450
 5681WAT     H117445   5.723   2.581   2.488
 5681WAT     H217446   5.682   2.674   2.376
 5682WAT      O17447   4.401   6.828   5.342
 5682WAT     H117448   4.466   6.893   5.317
 5682WAT     H217449   4.442   6.744   5.322
 5683WAT      O17450   7.315   5.789   4.401
 5683WAT     H117451   7.396   5.832   4.429
 5683WAT     H217452   7.248   5.857   4.408
 5684WAT      O17453   6.417   0.666   2.198
 5684WAT     H117454   6.473   0.637   2.126
 5684WAT     H217455   6.435   0.760   2.205
 5685WAT      O17456   0.088   5.867   6.228
 5685WAT     H117457   0.178   5.839   6.246
 5685WAT     H217458   0.088   5.888   6.135
 5686WAT      O17459   0.970   2.960   4.690
 5686WAT     H117460   0.914   2.881   4.689
 5686WAT     H217461   0.996   2.968   4.782
 5687WAT      O17462   4.308   3.076   1.689
 5687WAT     H117463   4.396   3.047   1.663
 5687WAT     H217464   4.250   3.028   1.629
 5688WAT      O17465   5.235   5.682   2.266
 5688WAT     H117466   5.209   5.597   2.231
 5688WAT     H217467   5.155   5.718   2.305
 5689WAT      O17468   2.873   4.902   3.564
 5689WAT     H117469   2.887   4.996   3.578
 5689WAT     H217470   2.839   4.895   3.475
 5690WAT      O17471   4.870   1.565   3.593
 5690WAT     H117472   4.800   1.616   3.552
 5690WAT     H217473   4.868   1.481   3.547
 5691WAT      O17474   1.729   0.500   0.468
 5691WAT     H117475   1.741   0.405   0.466
 5691WAT     H217476   1.635   0.512   0.478
 5692WAT      O17477   2.296   2.529   1.170
 5692WAT     H117478   2.356   2.538   1.244
 5692WAT     H217479   2.247   2.448   1.187
 5693WAT      O17480   4.115   1.891   1.758
 5693WAT     H117481   4.075   1.874   1.673
 5693WAT     H217482   4.053   1.855   1.822
 5694WAT      O17483   2.924   0.403   3.355
 5694WAT     H117484   2.951   0.314   3.331
 5694WAT     H217485   2.872   0.433   3.280
 5695WAT      O17486   2.256   4.495   4.021
 5695WAT     H117487   2.225   4.466   3.935
 5695WAT     H217488   2.176   4.514   4.069
 5696WAT      O17489   1.892   1.058   0.861
 5696WAT     H117490   1.825   1.005   0.903
 5696WAT     H217491   1.871   1.054   0.767
 5697WAT      O17492   4.654   0.462   0.787
 5697WAT     H117493   4.676   0.400   0.717
 5697WAT     H217494   4.626   0.541   0.742
 5698WAT      O17495   1.552   6.758   2.370
 5698WAT     H117496   1.589   6.846   2.363
 5698WAT     H217497   1.515   6.755   2.458
 5699WAT      O17498   7.508   4.355   1.141
 5699WAT     H117499   7.448   4.330   1.211
 5699WAT     H217500   7.524   4.448   1.155
 5700WAT      O17501   7.220   1.598   4.403
 5700WAT     H117502   7.159   1.526   4.388
 5700WAT     H217503   7.280   1.594   4.328
 5701WAT      O17504   0.196   4.431   6.118
 5701WAT     H117505   0.182   4.525   6.104
 5701WAT     H217506   0.170   4.390   6.036
 5702WAT      O17507   6.508   2.258   0.440
 5702WAT     H117508   6.440   2.322   0.459
 5702WAT     H217509   6.476   2.211   0.362
 5703WAT      O17510   5.736   1.834   0.508
 5703WAT     H117511   5.785   1.787   0.441
 5703WAT     H217512   5.759   1.926   0.495
 5704WAT      O17513   1.814   0.136   2.024
 5704WAT     H117514   1.745   0.071   2.009
 5704WAT     H217515   1.770   0.220   2.010
 5705WAT      O17516   6.922   2.353   4.127
 5705WAT     H117517   6.913   2.448   4.124
 5705WAT     H217518   6.834   2.321   4.147
 5706WAT      O17519   4.296   5.583   0.496
 5706WAT     H117520   4.326   5.536   0.574
 5706WAT     H217521   4.371   5.581   0.437
 5707WAT      O17522   6.463   1.805   0.722
 5707WAT     H117523   6.450   1.899   0.706
 5707WAT     H217524   6.379   1.765   0.702
 5708WAT      O17525   1.735   5.344   5.196
 5708WAT     H117526   1.770   5.307   5.276
 5708WAT     H217527   1.660   5.397   5.224
 5709WAT      O17528   2.462   1.175   0.073
 5709WAT     H117529   2.417   1.106   0.023
 5709WAT     H217530   2.462   1.250   0.014
 5710WAT      O17531   5.119   5.604   1.372
 5710WAT     H117532   5.030   5.614   1.340
 5710WAT     H217533   5.165   5.682   1.340
 5711WAT      O17534   2.810   1.549   0.545
 5711WAT     H117535   2.885   1.557   0.603
 5711WAT     H217536   2.847   1.540   0.457
 5712WAT      O17537   1.769   5.811   4.374
 5712WAT     H117538   1.768   5.851   4.287
 5712WAT     H217539   1.825   5.733   4.363
 5713WAT      O17540   2.240   6.659   3.243
 5713WAT     H117541   2.315   6.664   3.301
 5713WAT     H217542   2.278   6.650   3.155
 5714WAT      O17543   6.715   3.020   3.267
 5714WAT     H117544   6.797   3.003   3.221
 5714WAT     H217545   6.718   3.113   3.287
 5715WAT      O17546   6.114   1.889   2.495
 5715WAT     H117547   6.195   1.915   2.451
 5715WAT     H217548   6.090   1.965   2.548
 5716WAT      O17549   4.392   2.407   1.502
 5716WAT     H117550   4.325   2.402   1.434
 5716WAT     H217551   4.372   2.333   1.560
 5717WAT      O17552   6.628   0.144   3.340
 5717WAT     H117553   6.559   0.080   3.322
 5717WAT     H217554   6.626   0.203   3.265
 5718WAT      O17555   0.243   0.714   4.912
 5718WAT     H117556   0.154   0.682   4.900
 5718WAT     H217557   0.234   0.787   4.973
 5719WAT      O17558   3.663   3.714   1.427
 5719WAT     H117559   3.687   3.638   1.375
 5719WAT     H217560   3.696   3.694   1.515
 5720WAT      O17561   5.040   3.254   0.637
 5720WAT     H117562   5.042   3.282   0.546
 5720WAT     H217563   4.955   3.212   0.647
 5721WAT      O17564   0.834   4.393   5.202
 5721WAT     H117565   0.823   4.299   5.216
 5721WAT     H217566   0.745   4.429   5.208
 5722WAT      O17567   5.869   1.912   0.112
 5722WAT     H117568   5.781   1.913   0.150
 5722WAT     H217569   5.891   1.820   0.105
 5723WAT      O17570   7.146   3.259   4.502
 5723WAT     H117571   7.172   3.238   4.413
 5723WAT     H217572   7.165   3.180   4.553
 5724WAT      O17573   0.829   1.837   5.536
 5724WAT     H117574   0.859   1.925   5.556
 5724WAT     H217575   0.737   1.847   5.512
 5725WAT      O17576   2.207   4.321   0.381
 5725WAT     H117577   2.245   4.387   0.439
 5725WAT     H217578   2.182   4.370   0.303
 5726WAT      O17579   1.541   1.144   1.698
 5726WAT     H117580   1.499   1.138   1.784
 5726WAT     H217581   1.476   1.109   1.637
 5727WAT      O17582   5.229   3.104   3.614
 5727WAT     H117583   5.294   3.174   3.615
 5727WAT     H217584   5.276   3.029   3.577
 5728WAT      O17585   3.845   3.729   5.779
 5728WAT     H117586   3.895   3.707   5.700
 5728WAT     H217587   3.786   3.799   5.751
 5729WAT      O17588   2.447   2.233   4.550
 5729WAT     H117589   2.494   2.280   4.482
 5729WAT     H217590   2.373   2.191   4.504
 5730WAT      O17591   2.709   5.895   4.418
 5730WAT     H117592   2.625   5.938   4.435
 5730WAT     H217593   2.774   5.955   4.455
 5731WAT      O17594   5.094   4.189   2.454
 5731WAT     H117595   5.073   4.182   2.361
 5731WAT     H217596   5.038   4.123   2.496
 5732WAT      O17597   3.401   4.595   3.817
 5732WAT     H117598   3.411   4.567   3.908
 5732WAT     H217599   3.380   4.515   3.769
 5733WAT      O17600   6.365   0.334   3.190
 5733WAT     H117601   6.397   0.366   3.275
 5733WAT     H217602   6.318   0.253   3.211
 5734WAT      O17603   3.976   3.054   3.427
 5734WAT     H117604   3.939   2.987   3.370
 5734WAT     H217605   3.933   3.135   3.401
 5735WAT      O17606   0.568   0.500   3.506
 5735WAT     H117607   0.525   0.501   3.420
 5735WAT     H217608   0.659   0.520   3.487
 5736WAT      O17609   1.451   6.972   4.481
 5736WAT     H117610   1.505   7.051   4.476
 5736WAT     H217611   1.368   7.003   4.518
 5737WAT      O17612   3.636   2.434   0.127
 5737WAT     H117613   3.578   2.475   0.063
 5737WAT     H217614   3.676   2.361   0.080
 5738WAT      O17615   3.816   0.006   3.080
 5738WAT     H117616   3.822  -0.072   3.025
 5738WAT     H217617   3.765   0.068   3.028
 5739WAT      O17618   2.017   6.824   3.636
 5739WAT     H117619   2.027   6.841   3.542
 5739WAT     H217620   1.987   6.734   3.641
 5740WAT      O17621   5.435   3.595   3.094
 5740WAT     H117622   5.424   3.500   3.097
 5740WAT     H217623   5.347   3.630   3.084
 5741WAT      O17624   1.734   0.378   0.857
 5741WAT     H117625   1.666   0.342   0.800
 5741WAT     H217626   1.800   0.413   0.797
 5742WAT      O17627   5.072   6.154   2.367
 5742WAT     H117628   5.004   6.184   2.427
 5742WAT     H217629   5.044   6.066   2.341
 5743WAT      O17630   7.108   1.724   4.640
 5743WAT     H117631   7.080   1.633   4.623
 5743WAT     H217632   7.131   1.758   4.554
 5744WAT      O17633   1.715   0.290   5.949
 5744WAT     H117634   1.716   0.257   5.859
 5744WAT     H217635   1.654   0.232   5.995
 5745WAT      O17636   2.076   0.838   3.933
 5745WAT     H117637   2.006   0.777   3.911
 5745WAT     H217638   2.044   0.923   3.904
 5746WAT      O17639   7.004   6.611   2.698
 5746WAT     H117640   7.038   6.614   2.609
 5746WAT     H217641   6.941   6.539   2.697
 5747WAT      O17642   3.986   1.325   5.199
 5747WAT     H117643   3.934   1.405   5.206
 5747WAT     H217644   4.073   1.355   5.172
 5748WAT      O17645   6.517   0.321   2.522
 5748WAT     H117646   6.474   0.270   2.453
 5748WAT     H217647   6.565   0.255   2.573
 5749WAT      O17648   0.230   5.866   0.632
 5749WAT     H117649   0.225   5.790   0.574
 5749WAT     H217650   0.140   5.880   0.662
 5750WAT      O17651   1.111   4.038   3.617
 5750WAT     H117652   1.188   3.986   3.641
 5750WAT     H217653   1.130   4.069   3.528
 5751WAT      O17654   0.078   3.061   5.765
 5751WAT     H117655   0.087   2.969   5.788
 5751WAT     H217656  -0.003   3.065   5.715
 5752WAT      O17657   4.882   2.696   4.701
 5752WAT     H117658   4.890   2.603   4.681
 5752WAT     H217659   4.906   2.740   4.619
 5753WAT      O17660   7.307   7.026   2.947
 5753WAT     H117661   7.303   6.934   2.923
 5753WAT     H217662   7.254   7.071   2.882
 5754WAT      O17663   7.002   6.534   0.699
 5754WAT     H117664   6.927   6.476   0.690
 5754WAT     H217665   7.077   6.482   0.669
 5755WAT      O17666   0.548   5.450   3.199
 5755WAT     H117667   0.499   5.388   3.145
 5755WAT     H217668   0.589   5.395   3.266
 5756WAT      O17669   2.454   2.551   2.517
 5756WAT     H117670   2.459   2.633   2.567
 5756WAT     H217671   2.402   2.573   2.440
 5757WAT      O17672   6.992   6.791   2.402
 5757WAT     H117673   6.990   6.799   2.307
 5757WAT     H217674   6.988   6.697   2.419
 5758WAT      O17675   4.398   5.718   0.195
 5758WAT     H117676   4.479   5.671   0.173
 5758WAT     H217677   4.427   5.806   0.219
 5759WAT      O17678   1.438   2.800   2.842
 5759WAT     H117679   1.500   2.767   2.776
 5759WAT     H217680   1.462   2.753   2.922
 5760WAT      O17681   2.354   0.575   5.792
 5760WAT     H117682   2.387   0.505   5.848
 5760WAT     H217683   2.282   0.536   5.743
 5761WAT      O17684   4.198   3.663   0.919
 5761WAT     H117685   4.204   3.663   1.014
 5761WAT     H217686   4.226   3.576   0.893
 5762WAT      O17687   3.836   6.499   5.126
 5762WAT     H117688   3.856   6.410   5.097
 5762WAT     H217689   3.922   6.538   5.145
 5763WAT      O17690   5.524   6.868   2.311
 5763WAT     H117691   5.444   6.819   2.294
 5763WAT     H217692   5.515   6.948   2.259
 5764WAT      O17693   3.810   5.978   0.093
 5764WAT     H117694   3.848   6.065   0.092
 5764WAT     H217695   3.884   5.919   0.081
 5765WAT      O17696   6.351   0.278   1.940
 5765WAT     H117697   6.337   0.250   2.030
 5765WAT     H217698   6.265   0.269   1.898
 5766WAT      O17699   0.952   5.288   5.938
 5766WAT     H117700   0.969   5.368   5.889
 5766WAT     H217701   0.926   5.225   5.871
 5767WAT      O17702   3.358   4.867   1.434
 5767WAT     H117703   3.430   4.849   1.374
 5767WAT     H217704   3.335   4.959   1.417
 5768WAT      O17705   4.945   1.236   5.002
 5768WAT     H117706   5.041   1.238   4.999
 5768WAT     H217707   4.918   1.312   4.952
 5769WAT      O17708   2.475   3.698   0.429
 5769WAT     H117709   2.479   3.774   0.372
 5769WAT     H217710   2.519   3.726   0.510
 5770WAT      O17711   1.363   2.366   1.263
 5770WAT     H117712   1.430   2.424   1.228
 5770WAT     H217713   1.324   2.324   1.186
 5771WAT      O17714   6.683   4.041   5.497
 5771WAT     H117715   6.637   3.962   5.526
 5771WAT     H217716   6.738   4.012   5.424
 5772WAT      O17717   7.241   6.679   1.211
 5772WAT     H117718   7.221   6.759   1.161
 5772WAT     H217719   7.175   6.678   1.281
 5773WAT      O17720   0.420   2.263   3.395
 5773WAT     H117721   0.426   2.213   3.477
 5773WAT     H217722   0.405   2.197   3.328
 5774WAT      O17723   3.679   2.089   2.270
 5774WAT     H117724   3.644   2.099   2.358
 5774WAT     H217725   3.719   2.174   2.250
 5775WAT      O17726   3.513   0.483   2.175
 5775WAT     H117727   3.597   0.507   2.213
 5775WAT     H217728   3.482   0.563   2.134
 5776WAT      O17729   0.846   2.640   3.017
 5776WAT     H117730   0.838   2.698   2.942
 5776WAT     H217731   0.843   2.552   2.980
 5777WAT      O17732   3.339   5.591   0.472
 5777WAT     H117733   3.386   5.562   0.394
 5777WAT     H217734   3.381   5.674   0.495
 5778WAT      O17735   3.155   1.573   0.861
 5778WAT     H117736   3.123   1.485   0.842
 5778WAT     H217737   3.250   1.565   0.863
 5779WAT      O17738   2.986   5.091   1.019
 5779WAT     H117739   2.966   5.127   0.933
 5779WAT     H217740   2.915   5.122   1.076
 5780WAT      O17741   7.364   3.577   4.148
 5780WAT     H117742   7.448   3.621   4.134
 5780WAT     H217743   7.303   3.621   4.088
 5781WAT      O17744   6.171   5.961   4.547
 5781WAT     H117745   6.238   5.936   4.482
 5781WAT     H217746   6.133   6.041   4.511
 5782WAT      O17747   5.485   0.175   2.966
 5782WAT     H117748   5.529   0.247   3.011
 5782WAT     H217749   5.432   0.218   2.900
 5783WAT      O17750   3.105   3.827   0.046
 5783WAT     H117751   3.132   3.735   0.045
 5783WAT     H217752   3.031   3.830  -0.015
 5784WAT      O17753   5.544   1.537   5.859
 5784WAT     H117754   5.576   1.518   5.947
 5784WAT     H217755   5.624   1.542   5.806
 5785WAT      O17756   6.812   3.682   6.167
 5785WAT     H117757   6.769   3.760   6.132
 5785WAT     H217758   6.779   3.610   6.113
 5786WAT      O17759   2.367   0.595   3.386
 5786WAT     H117760   2.293   0.577   3.444
 5786WAT     H217761   2.420   0.515   3.388
 5787WAT      O17762   6.625   3.204   5.280
 5787WAT     H117763   6.578   3.126   5.310
 5787WAT     H217764   6.569   3.240   5.212
 5788WAT      O17765   1.065   1.617   1.880
 5788WAT     H117766   1.123   1.541   1.872
 5788WAT     H217767   1.010   1.597   1.956
 5789WAT      O17768   1.088   0.424   6.128
 5789WAT     H117769   1.027   0.419   6.054
 5789WAT     H217770   1.120   0.335   6.139
 5790WAT      O17771   6.324   5.966   4.062
 5790WAT     H117772   6.254   5.928   4.115
 5790WAT     H217773   6.390   5.896   4.054
 5791WAT      O17774   3.616   6.586   4.982
 5791WAT     H117775   3.679   6.567   5.052
 5791WAT     H217776   3.649   6.668   4.943
 5792WAT      O17777   6.465   6.887   3.470
 5792WAT     H117778   6.499   6.940   3.398
 5792WAT     H217779   6.543   6.848   3.510
 5793WAT      O17780   1.752   5.845   2.129
 5793WAT     H117781   1.658   5.846   2.142
 5793WAT     H217782   1.770   5.760   2.090
 5794WAT      O17783   7.574   7.092   0.735
 5794WAT     H117784   7.626   7.016   0.759
 5794WAT     H217785   7.540   7.071   0.648
 5795WAT      O17786   0.644   4.100   3.745
 5795WAT     H117787   0.668   4.169   3.683
 5795WAT     H217788   0.727   4.069   3.780
 5796WAT      O17789   5.307   0.914   2.595
 5796WAT     H117790   5.218   0.887   2.572
 5796WAT     H217791   5.295   0.983   2.660
 5797WAT      O17792   4.096   3.461   4.010
 5797WAT     H117793   4.080   3.549   3.977
 5797WAT     H217794   4.185   3.464   4.044
 5798WAT      O17795   7.503   7.011   3.547
 5798WAT     H117796   7.411   7.035   3.561
 5798WAT     H217797   7.502   6.915   3.541
 5799WAT      O17798   2.140   2.934   2.127
 5799WAT     H117799   2.210   2.883   2.087
 5799WAT     H217800   2.134   3.013   2.074
 5800WAT      O17801   2.946   2.538   0.270
 5800WAT     H117802   2.861   2.501   0.297
 5800WAT     H217803   2.949   2.525   0.175
 5801WAT      O17804   4.255   1.442   0.272
 5801WAT     H117805   4.330   1.483   0.316
 5801WAT     H217806   4.248   1.487   0.188
 5802WAT      O17807   6.568   5.753   0.810
 5802WAT     H117808   6.656   5.716   0.815
 5802WAT     H217809   6.581   5.848   0.807
 5803WAT      O17810   2.374   0.272   5.626
 5803WAT     H117811   2.312   0.320   5.680
 5803WAT     H217812   2.324   0.245   5.549
 5804WAT      O17813   1.688   6.431   1.884
 5804WAT     H117814   1.695   6.400   1.794
 5804WAT     H217815   1.596   6.454   1.895
 5805WAT      O17816   5.022   2.012   4.567
 5805WAT     H117817   5.053   1.968   4.487
 5805WAT     H217818   5.068   1.967   4.638
 5806WAT      O17819   1.307   5.577   1.611
 5806WAT     H117820   1.338   5.588   1.520
 5806WAT     H217821   1.348   5.496   1.640
 5807WAT      O17822   0.358   1.475   1.452
 5807WAT     H117823   0.382   1.385   1.473
 5807WAT     H217824   0.295   1.467   1.380
 5808WAT      O17825   2.857   4.303   1.051
 5808WAT     H117826   2.804   4.307   0.972
 5808WAT     H217827   2.793   4.309   1.123
 5809WAT      O17828   3.761   6.947   5.332
 5809WAT     H117829   3.707   6.871   5.311
 5809WAT     H217830   3.705   7.002   5.386
 5810WAT      O17831   7.398   0.186   3.843
 5810WAT     H117832   7.479   0.156   3.803
 5810WAT     H217833   7.378   0.120   3.910
 5811WAT      O17834   3.984   5.056   0.303
 5811WAT     H117835   3.959   5.011   0.223
 5811WAT     H217836   3.905   5.057   0.357
 5812WAT      O17837   6.862   3.915   5.779
 5812WAT     H117838   6.881   3.929   5.687
 5812WAT     H217839   6.785   3.857   5.779
 5813WAT      O17840   0.220   5.963   3.539
 5813WAT     H117841   0.177   5.994   3.618
 5813WAT     H217842   0.177   6.011   3.468
 5814WAT      O17843   5.869   5.647   2.161
 5814WAT     H117844   5.783   5.665   2.123
 5814WAT     H217845   5.907   5.579   2.105
 5815WAT      O17846   3.934   6.244   1.706
 5815WAT     H117847   3.876   6.224   1.632
 5815WAT     H217848   3.983   6.321   1.677
 5816WAT      O17849   1.139   4.054   4.799
 5816WAT     H117850   1.046   4.043   4.781
 5816WAT     H217851   1.183   3.995   4.738
 5817WAT      O17852   5.103   6.199   3.107
 5817WAT     H117853   5.099   6.293   3.089
 5817WAT     H217854   5.033   6.161   3.055
 5818WAT      O17855   6.755   3.106   2.463
 5818WAT     H117856   6.829   3.120   2.404
 5818WAT     H217857   6.700   3.042   2.419
 5819WAT      O17858   0.058   6.653   0.865
 5819WAT     H117859   0.108   6.582   0.825
 5819WAT     H217860   0.112   6.681   0.939
 5820WAT      O17861   5.431   3.967   0.086
 5820WAT     H117862   5.451   4.053   0.051
 5820WAT     H217863   5.355   3.937   0.036
 5821WAT      O17864   2.999   4.841   1.115
 5821WAT     H117865   3.088   4.815   1.093
 5821WAT     H217866   2.978   4.911   1.052
 5822WAT      O17867   2.427   2.805   4.463
 5822WAT     H117868   2.425   2.716   4.495
 5822WAT     H217869   2.407   2.797   4.369
 5823WAT      O17870   3.552   5.576   1.382
 5823WAT     H117871   3.483   5.525   1.423
 5823WAT     H217872   3.546   5.555   1.289
 5824WAT      O17873   7.148   3.759   4.458
 5824WAT     H117874   7.243   3.769   4.466
 5824WAT     H217875   7.136   3.675   4.414
 5825WAT      O17876   0.518   0.967   1.642
 5825WAT     H117877   0.534   0.882   1.600
 5825WAT     H217878   0.520   0.949   1.736
 5826WAT      O17879   4.431   4.427   1.008
 5826WAT     H117880   4.484   4.498   1.044
 5826WAT     H217881   4.374   4.400   1.080
 5827WAT      O17882   2.892   3.866   4.548
 5827WAT     H117883   2.892   3.817   4.630
 5827WAT     H217884   2.982   3.863   4.518
 5828WAT      O17885   7.461   3.246   0.254
 5828WAT     H117886   7.395   3.290   0.308
 5828WAT     H217887   7.534   3.308   0.251
 5829WAT      O17888   2.072   3.685   2.563
 5829WAT     H117889   2.147   3.703   2.620
 5829WAT     H217890   2.037   3.771   2.542
 5830WAT      O17891   0.094   5.438   2.702
 5830WAT     H117892   0.032   5.485   2.758
 5830WAT     H217893   0.146   5.507   2.661
 5831WAT      O17894   6.105   6.906   3.010
 5831WAT     H117895   6.105   6.889   2.916
 5831WAT     H217896   6.151   6.989   3.020
 5832WAT      O17897   6.354   2.440   4.463
 5832WAT     H117898   6.269   2.396   4.473
 5832WAT     H217899   6.339   2.507   4.397
 5833WAT      O17900   7.127   3.568   4.275
 5833WAT     H117901   7.066   3.542   4.206
 5833WAT     H217902   7.213   3.538   4.244
 5834WAT      O17903   1.592   4.096   5.361
 5834WAT     H117904   1.517   4.100   5.302
 5834WAT     H217905   1.648   4.028   5.324
 5835WAT      O17906   3.051   4.456   1.725
 5835WAT     H117907   2.957   4.441   1.735
 5835WAT     H217908   3.091   4.371   1.743
 5836WAT      O17909   4.915   1.815   4.954
 5836WAT     H117910   4.935   1.858   5.037
 5836WAT     H217911   4.826   1.843   4.933
 5837WAT      O17912   1.103   1.473   4.025
 5837WAT     H117913   1.081   1.514   3.941
 5837WAT     H217914   1.028   1.418   4.045
 5838WAT      O17915   5.817   6.350   3.782
 5838WAT     H117916   5.772   6.277   3.823
 5838WAT     H217917   5.853   6.400   3.855
 5839WAT      O17918   4.214   5.400   4.465
 5839WAT     H117919   4.300   5.441   4.456
 5839WAT     H217920   4.167   5.424   4.386
 5840WAT      O17921   7.475   2.745   3.238
 5840WAT     H117922   7.503   2.806   3.307
 5840WAT     H217923   7.477   2.659   3.280
 5841WAT      O17924   1.559   1.406   3.686
 5841WAT     H117925   1.542   1.396   3.592
 5841WAT     H217926   1.564   1.317   3.719
 5842WAT      O17927   6.016   6.173   4.795
 5842WAT     H117928   5.927   6.204   4.776
 5842WAT     H217929   6.009   6.078   4.791
 5843WAT      O17930   3.647   5.621   0.674
 5843WAT     H117931   3.582   5.550   0.671
 5843WAT     H217932   3.645   5.651   0.765
 5844WAT      O17933   3.710   1.996   1.489
 5844WAT     H117934   3.709   2.092   1.495
 5844WAT     H217935   3.791   1.976   1.443
 5845WAT      O17936   2.551   3.192   4.198
 5845WAT     H117937   2.639   3.226   4.181
 5845WAT     H217938   2.493   3.249   4.148
 5846WAT      O17939   1.285   5.748   5.974
 5846WAT     H117940   1.302   5.836   5.938
 5846WAT     H217941   1.272   5.694   5.896
 5847WAT      O17942   4.593   0.551   3.734
 5847WAT     H117943   4.621   0.472   3.687
 5847WAT     H217944   4.517   0.583   3.685
 5848WAT      O17945   2.602   5.569   0.430
 5848WAT     H117946   2.584   5.532   0.344
 5848WAT     H217947   2.518   5.568   0.475
 5849WAT      O17948   4.650   2.528   6.197
 5849WAT     H117949   4.725   2.506   6.252
 5849WAT     H217950   4.608   2.601   6.242
 5850WAT      O17951   6.054   2.983   0.310
 5850WAT     H117952   6.145   3.003   0.288
 5850WAT     H217953   6.018   3.066   0.341
 5851WAT      O17954   1.135   5.797   4.704
 5851WAT     H117955   1.046   5.787   4.737
 5851WAT     H217956   1.125   5.799   4.609
 5852WAT      O17957   6.496   2.415   4.126
 5852WAT     H117958   6.471   2.498   4.084
 5852WAT     H217959   6.566   2.380   4.071
 5853WAT      O17960   2.377   2.646   5.334
 5853WAT     H117961   2.351   2.694   5.255
 5853WAT     H217962   2.349   2.702   5.406
 5854WAT      O17963   5.049   1.505   6.178
 5854WAT     H117964   5.019   1.525   6.089
 5854WAT     H217965   4.993   1.433   6.207
 5855WAT      O17966   7.534   1.517   2.933
 5855WAT     H117967   7.558   1.497   2.843
 5855WAT     H217968   7.455   1.570   2.926
 5856WAT      O17969   3.494   5.798   0.547
 5856WAT     H117970   3.574   5.759   0.583
 5856WAT     H217971   3.520   5.887   0.522
 5857WAT      O17972   1.702   6.083   5.194
 5857WAT     H117973   1.794   6.104   5.177
 5857WAT     H217974   1.657   6.109   5.114
 5858WAT      O17975   4.529   1.287   1.378
 5858WAT     H117976   4.436   1.265   1.378
 5858WAT     H217977   4.532   1.381   1.393
 5859WAT      O17978   3.341   6.448   2.440
 5859WAT     H117979   3.415   6.412   2.489
 5859WAT     H217980   3.370   6.445   2.348
 5860WAT      O17981   0.249   0.466   5.629
 5860WAT     H117982   0.285   0.553   5.647
 5860WAT     H217983   0.193   0.479   5.552
 5861WAT      O17984   2.157   5.134   0.062
 5861WAT     H117985   2.188   5.176   0.142
 5861WAT     H217986   2.170   5.040   0.078
 5862WAT      O17987   0.493   1.604   3.668
 5862WAT     H117988   0.539   1.684   3.644
 5862WAT     H217989   0.444   1.580   3.590
 5863WAT      O17990   2.049   3.337   5.353
 5863WAT     H117991   1.958   3.313   5.369
 5863WAT     H217992   2.086   3.261   5.307
 5864WAT      O17993   6.898   1.800   3.318
 5864WAT     H117994   6.925   1.887   3.348
 5864WAT     H217995   6.958   1.780   3.246
 5865WAT      O17996   3.033   7.017   1.470
 5865WAT     H117997   3.090   6.952   1.430
 5865WAT     H217998   3.091   7.070   1.526
 5866WAT      O17999   3.008   3.739   3.703
 5866WAT     H118000   2.993   3.678   3.631
 5866WAT     H218001   2.923   3.782   3.716
 5867WAT      O18002   4.530   3.390   3.785
 5867WAT     H118003   4.614   3.356   3.817
 5867WAT     H218004   4.553   3.446   3.711
 5868WAT      O18005   0.229   4.290   3.302
 5868WAT     H118006   0.295   4.266   3.237
 5868WAT     H218007   0.279   4.311   3.380
 5869WAT      O18008   5.859   6.226   4.337
 5869WAT     H118009   5.866   6.283   4.261
 5869WAT     H218010   5.836   6.140   4.302
 5870WAT      O18011   7.322   3.862   1.543
 5870WAT     H118012   7.415   3.878   1.563
 5870WAT     H218013   7.310   3.900   1.456
 5871WAT      O18014   2.000   2.649   2.467
 5871WAT     H118015   1.968   2.733   2.432
 5871WAT     H218016   2.020   2.668   2.558
 5872WAT      O18017   2.644   7.102   1.162
 5872WAT     H118018   2.557   7.084   1.126
 5872WAT     H218019   2.639   7.072   1.253
 5873WAT      O18020   2.504   3.520   3.856
 5873WAT     H118021   2.557   3.491   3.782
 5873WAT     H218022   2.441   3.582   3.818
 5874WAT      O18023   5.394   0.529   0.572
 5874WAT     H118024   5.470   0.471   0.570
 5874WAT     H218025   5.393   0.563   0.662
 5875WAT      O18026   1.072   0.515   4.311
 5875WAT     H118027   1.046   0.596   4.354
 5875WAT     H218028   1.072   0.535   4.218
 5876WAT      O18029   2.208   2.018   1.113
 5876WAT     H118030   2.167   2.086   1.059
 5876WAT     H218031   2.140   1.994   1.177
 5877WAT      O18032   5.276   1.970   1.471
 5877WAT     H118033   5.328   2.005   1.398
 5877WAT     H218034   5.335   1.973   1.546
 5878WAT      O18035   5.821   2.087   0.451
 5878WAT     H118036   5.900   2.139   0.468
 5878WAT     H218037   5.803   2.101   0.358
 5879WAT      O18038   2.904   6.353   0.463
 5879WAT     H118039   2.936   6.408   0.392
 5879WAT     H218040   2.820   6.320   0.432
 5880WAT      O18041   4.215   7.159   4.085
 5880WAT     H118042   4.249   7.070   4.096
 5880WAT     H218043   4.121   7.148   4.074
 5881WAT      O18044   4.691   6.381   4.537
 5881WAT     H118045   4.701   6.455   4.477
 5881WAT     H218046   4.597   6.366   4.541
 5882WAT      O18047   1.533   2.557   5.602
 5882WAT     H118048   1.475   2.633   5.602
 5882WAT     H218049   1.543   2.534   5.509
 5883WAT      O18050   3.019   6.348   5.004
 5883WAT     H118051   2.986   6.258   4.994
 5883WAT     H218052   3.081   6.359   4.932
 5884WAT      O18053   6.164   4.150   0.125
 5884WAT     H118054   6.160   4.079   0.061
 5884WAT     H218055   6.134   4.227   0.077
 5885WAT      O18056   3.052   6.326   3.034
 5885WAT     H118057   3.143   6.304   3.050
 5885WAT     H218058   3.028   6.274   2.957
 5886WAT      O18059   4.752   0.226   2.184
 5886WAT     H118060   4.707   0.224   2.099
 5886WAT     H218061   4.845   0.235   2.161
 5887WAT      O18062   2.042   0.782   1.997
 5887WAT     H118063   2.001   0.816   1.917
 5887WAT     H218064   2.024   0.688   1.994
 5888WAT      O18065   0.518   1.496   5.395
 5888WAT     H118066   0.506   1.584   5.360
 5888WAT     H218067   0.431   1.470   5.425
 5889WAT      O18068   2.688   5.167   1.079
 5889WAT     H118069   2.666   5.165   0.986
 5889WAT     H218070   2.603   5.163   1.124
 5890WAT      O18071   3.649   5.907   3.534
 5890WAT     H118072   3.583   5.854   3.579
 5890WAT     H218073   3.602   5.988   3.511
 5891WAT      O18074   2.064   1.233   6.090
 5891WAT     H118075   2.020   1.199   6.013
 5891WAT     H218076   2.025   1.320   6.104
 5892WAT      O18077   0.456   3.695   5.269
 5892WAT     H118078   0.385   3.658   5.216
 5892WAT     H218079   0.531   3.640   5.251
 5893WAT      O18080   0.661   4.481   6.050
 5893WAT     H118081   0.594   4.537   6.011
 5893WAT     H218082   0.711   4.447   5.976
 5894WAT      O18083   6.423   3.329   3.489
 5894WAT     H118084   6.395   3.238   3.475
 5894WAT     H218085   6.440   3.362   3.401
 5895WAT      O18086   1.927   1.567   3.942
 5895WAT     H118087   1.966   1.494   3.990
 5895WAT     H218088   2.002   1.619   3.913
 5896WAT      O18089   5.869   1.973   2.328
 5896WAT     H118090   5.871   1.892   2.277
 5896WAT     H218091   5.826   1.949   2.410
 5897WAT      O18092   5.803   2.969   6.056
 5897WAT     H118093   5.735   3.032   6.034
 5897WAT     H218094   5.877   2.993   6.000
 5898WAT      O18095   3.631   0.986   0.277
 5898WAT     H118096   3.670   0.973   0.190
 5898WAT     H218097   3.599   1.076   0.275
 5899WAT      O18098   4.328   4.162   4.570
 5899WAT     H118099   4.345   4.208   4.652
 5899WAT     H218100   4.396   4.193   4.510
 5900WAT      O18101   6.433   6.522   0.860
 5900WAT     H118102   6.398   6.579   0.929
 5900WAT     H218103   6.397   6.558   0.779
 5901WAT      O18104   2.587   4.438   5.390
 5901WAT     H118105   2.579   4.455   5.483
 5901WAT     H218106   2.496   4.433   5.359
 5902WAT      O18107   1.931   4.569   6.156
 5902WAT     H118108   1.875   4.509   6.108
 5902WAT     H218109   1.987   4.513   6.209
 5903WAT      O18110   4.359   1.906   0.369
 5903WAT     H118111   4.272   1.936   0.344
 5903WAT     H218112   4.413   1.919   0.290
 5904WAT      O18113   4.871   1.435   4.387
 5904WAT     H118114   4.781   1.403   4.394
 5904WAT     H218115   4.895   1.421   4.295
 5905WAT      O18116   5.668   5.468   3.097
 5905WAT     H118117   5.662   5.541   3.037
 5905WAT     H218118   5.719   5.402   3.050
 5906WAT      O18119   3.609   4.476   5.341
 5906WAT     H118120   3.613   4.414   5.268
 5906WAT     H218121   3.659   4.551   5.311
 5907WAT      O18122   0.138   3.410   4.122
 5907WAT     H118123   0.180   3.325   4.135
 5907WAT     H218124   0.185   3.449   4.049
 5908WAT      O18125   3.194   2.209   4.311
 5908WAT     H118126   3.282   2.184   4.340
 5908WAT     H218127   3.146   2.127   4.304
 5909WAT      O18128   6.143   4.068   2.794
 5909WAT     H118129   6.168   4.143   2.740
 5909WAT     H218130   6.209   4.001   2.774
 5910WAT      O18131   2.274   0.554   4.524
 5910WAT     H118132   2.262   0.649   4.517
 5910WAT     H218133   2.368   0.540   4.508
 5911WAT      O18134   6.804   4.011   1.538
 5911WAT     H118135   6.727   4.043   1.491
 5911WAT     H218136   6.852   3.959   1.473
 5912WAT      O18137   4.118   3.217   4.974
 5912WAT     H118138   4.199   3.259   5.001
 5912WAT     H218139   4.143   3.161   4.901
 5913WAT      O18140   1.176   2.203   3.172
 5913WAT     H118141   1.208   2.113   3.180
 5913WAT     H218142   1.129   2.219   3.254
 5914WAT      O18143   6.958   3.823   1.416
 5914WAT     H118144   6.893   3.772   1.368
 5914WAT     H218145   7.022   3.850   1.349
 5915WAT      O18146   0.549   6.811   5.926
 5915WAT     H118147   0.483   6.815   5.857
 5915WAT     H218148   0.610   6.881   5.906
 5916WAT      O18149   0.014   5.861   0.808
 5916WAT     H118150  -0.080   5.876   0.802
 5916WAT     H218151   0.022   5.788   0.869
 5917WAT      O18152   5.136   3.171   2.925
 5917WAT     H118153   5.105   3.096   2.874
 5917WAT     H218154   5.062   3.232   2.926
 5918WAT      O18155   2.061   7.065   0.574
 5918WAT     H118156   2.154   7.041   0.580
 5918WAT     H218157   2.058   7.131   0.504
 5919WAT      O18158   6.391   2.662   3.181
 5919WAT     H118159   6.372   2.628   3.094
 5919WAT     H218160   6.441   2.742   3.166
 5920WAT      O18161   0.451   5.358   3.915
 5920WAT     H118162   0.456   5.326   3.825
 5920WAT     H218163   0.534   5.402   3.930
 5921WAT      O18164   0.250   5.737   2.890
 5921WAT     H118165   0.243   5.831   2.906
 5921WAT     H218166   0.318   5.707   2.951
 5922WAT      O18167   1.072   1.232   0.735
 5922WAT     H118168   1.004   1.174   0.698
 5922WAT     H218169   1.078   1.205   0.827
 5923WAT      O18170   2.859   4.897   4.659
 5923WAT     H118171   2.871   4.803   4.668
 5923WAT     H218172   2.874   4.915   4.566
 5924WAT      O18173   5.300   5.339   2.752
 5924WAT     H118174   5.374   5.288   2.720
 5924WAT     H218175   5.307   5.335   2.848
 5925WAT      O18176   2.120   3.869   4.622
 5925WAT     H118177   2.071   3.839   4.545
 5925WAT     H218178   2.172   3.942   4.589
 5926WAT      O18179   0.044   3.307   1.835
 5926WAT     H118180   0.068   3.333   1.746
 5926WAT     H218181  -0.048   3.329   1.843
 5927WAT      O18182   5.176   1.629   2.748
 5927WAT     H118183   5.257   1.613   2.798
 5927WAT     H218184   5.207   1.649   2.660
 5928WAT      O18185   1.542   6.401   5.845
 5928WAT     H118186   1.552   6.339   5.773
 5928WAT     H218187   1.497   6.476   5.807
 5929WAT      O18188   6.429   2.713   1.935
 5929WAT     H118189   6.470   2.749   1.856
 5929WAT     H218190   6.416   2.620   1.916
 5930WAT      O18191   3.632   5.868   5.832
 5930WAT     H118192   3.680   5.886   5.751
 5930WAT     H218193   3.678   5.918   5.899
 5931WAT      O18194   1.198   1.460   4.844
 5931WAT     H118195   1.203   1.522   4.771
 5931WAT     H218196   1.208   1.515   4.922
 5932WAT      O18197   5.725   6.613   3.415
 5932WAT     H118198   5.668   6.538   3.433
 5932WAT     H218199   5.809   6.575   3.393
 5933WAT      O18200   7.622   6.318   5.895
 5933WAT     H118201   7.597   6.248   5.955
 5933WAT     H218202   7.546   6.328   5.837
 5934WAT      O18203   6.419   0.315   5.541
 5934WAT     H118204   6.492   0.261   5.508
 5934WAT     H218205   6.343   0.257   5.539
 5935WAT      O18206   4.998   7.056   0.206
 5935WAT     H118207   4.955   7.035   0.124
 5935WAT     H218208   4.927   7.059   0.271
 5936WAT      O18209   3.457   6.150   4.054
 5936WAT     H118210   3.473   6.230   4.004
 5936WAT     H218211   3.472   6.079   3.991
 5937WAT      O18212   7.379   0.287   2.228
 5937WAT     H118213   7.323   0.209   2.219
 5937WAT     H218214   7.405   0.308   2.139
 5938WAT      O18215   6.352   5.005   4.411
 5938WAT     H118216   6.325   4.923   4.451
 5938WAT     H218217   6.398   5.052   4.480
 5939WAT      O18218   5.493   2.119   3.056
 5939WAT     H118219   5.514   2.206   3.022
 5939WAT     H218220   5.569   2.095   3.108
 5940WAT      O18221   2.382   0.703   2.791
 5940WAT     H118222   2.395   0.716   2.697
 5940WAT     H218223   2.298   0.745   2.809
 5941WAT      O18224   4.316   2.167   1.625
 5941WAT     H118225   4.276   2.147   1.709
 5941WAT     H218226   4.243   2.188   1.567
 5942WAT      O18227   6.830   6.379   1.434
 5942WAT     H118228   6.841   6.465   1.395
 5942WAT     H218229   6.779   6.330   1.370
 5943WAT      O18230   3.174   0.292   1.932
 5943WAT     H118231   3.196   0.375   1.890
 5943WAT     H218232   3.231   0.289   2.009
 5944WAT      O18233   2.254   1.762   1.833
 5944WAT     H118234   2.213   1.798   1.911
 5944WAT     H218235   2.254   1.835   1.771
 5945WAT      O18236   2.967   0.009   5.641
 5945WAT     H118237   2.923  -0.030   5.717
 5945WAT     H218238   3.000  -0.066   5.592
 5946WAT      O18239   4.712   0.065   5.001
 5946WAT     H118240   4.728   0.130   4.932
 5946WAT     H218241   4.624   0.032   4.982
 5947WAT      O18242   4.957   5.941   2.278
 5947WAT     H118243   4.990   5.885   2.208
 5947WAT     H218244   4.977   5.892   2.358
 5948WAT      O18245   1.223   4.635   0.123
 5948WAT     H118246   1.142   4.598   0.088
 5948WAT     H218247   1.288   4.567   0.109
 5949WAT      O18248   0.999   4.844   1.287
 5949WAT     H118249   0.939   4.901   1.238
 5949WAT     H218250   1.062   4.814   1.221
 5950WAT      O18251   6.826   1.738   4.422
 5950WAT     H118252   6.847   1.646   4.409
 5950WAT     H218253   6.870   1.784   4.350
 5951WAT      O18254   7.172   5.903   1.147
 5951WAT     H118255   7.154   5.995   1.129
 5951WAT     H218256   7.240   5.903   1.214
 5952WAT      O18257   3.129   2.929   6.108
 5952WAT     H118258   3.102   2.864   6.043
 5952WAT     H218259   3.165   3.001   6.056
 5953WAT      O18260   4.929   3.449   5.999
 5953WAT     H118261   4.936   3.439   5.904
 5953WAT     H218262   4.849   3.401   6.022
 5954WAT      O18263   7.432   0.168   2.809
 5954WAT     H118264   7.501   0.230   2.785
 5954WAT     H218265   7.354   0.199   2.762
 5955WAT      O18266   0.934   0.634   0.198
 5955WAT     H118267   1.024   0.666   0.203
 5955WAT     H218268   0.933   0.577   0.120
 5956WAT      O18269   3.982   1.921   1.012
 5956WAT     H118270   4.009   2.012   1.014
 5956WAT     H218271   3.929   1.914   0.932
 5957WAT      O18272   3.289   6.236   0.107
 5957WAT     H118273   3.329   6.320   0.088
 5957WAT     H218274   3.293   6.188   0.024
 5958WAT      O18275   5.071   1.354   0.771
 5958WAT     H118276   5.125   1.422   0.730
 5958WAT     H218277   5.049   1.389   0.857
 5959WAT      O18278   4.380   6.190   4.778
 5959WAT     H118279   4.375   6.248   4.702
 5959WAT     H218280   4.299   6.206   4.826
 5960WAT      O18281   0.602   6.148   1.070
 5960WAT     H118282   0.524   6.107   1.109
 5960WAT     H218283   0.577   6.163   0.979
 5961WAT      O18284   1.726   5.561   4.702
 5961WAT     H118285   1.635   5.591   4.700
 5961WAT     H218286   1.728   5.487   4.642
 5962WAT      O18287   6.011   2.860   6.219
 5962WAT     H118288   5.943   2.821   6.165
 5962WAT     H218289   6.030   2.944   6.177
 5963WAT      O18290   0.677   0.911   2.173
 5963WAT     H118291   0.757   0.957   2.196
 5963WAT     H218292   0.704   0.821   2.155
 5964WAT      O18293   7.173   0.837   0.149
 5964WAT     H118294   7.228   0.914   0.143
 5964WAT     H218295   7.224   0.767   0.109
 5965WAT      O18296   6.543   3.031   3.590
 5965WAT     H118297   6.472   2.986   3.544
 5965WAT     H218298   6.613   2.966   3.596
 5966WAT      O18299   5.304   5.294   1.105
 5966WAT     H118300   5.351   5.211   1.115
 5966WAT     H218301   5.370   5.355   1.071
 5967WAT      O18302   2.307   3.370   3.527
 5967WAT     H118303   2.299   3.443   3.589
 5967WAT     H218304   2.386   3.390   3.476
 5968WAT      O18305   7.417   4.964   0.229
 5968WAT     H118306   7.494   4.919   0.194
 5968WAT     H218307   7.428   5.055   0.200
 5969WAT      O18308   2.678   6.499   0.656
 5969WAT     H118309   2.683   6.511   0.561
 5969WAT     H218310   2.694   6.586   0.692
 5970WAT      O18311   4.868   3.733   2.340
 5970WAT     H118312   4.825   3.707   2.422
 5970WAT     H218313   4.814   3.695   2.271
 5971WAT      O18314   1.169   3.005   3.336
 5971WAT     H118315   1.222   3.077   3.302
 5971WAT     H218316   1.151   2.950   3.260
 5972WAT      O18317   6.964   6.702   3.149
 5972WAT     H118318   7.021   6.627   3.166
 5972WAT     H218319   6.961   6.708   3.054
 5973WAT      O18320   3.939   6.674   4.635
 5973WAT     H118321   4.024   6.671   4.679
 5973WAT     H218322   3.950   6.619   4.557
 5974WAT      O18323   5.929   5.616   2.426
 5974WAT     H118324   5.916   5.630   2.332
 5974WAT     H218325   5.882   5.688   2.468
 5975WAT      O18326   0.176   4.592   3.466
 5975WAT     H118327   0.138   4.581   3.379
 5975WAT     H218328   0.268   4.567   3.455
 5976WAT      O18329   4.201   2.873   1.915
 5976WAT     H118330   4.126   2.860   1.857
 5976WAT     H218331   4.212   2.968   1.919
 5977WAT      O18332   2.423   3.978   5.356
 5977WAT     H118333   2.331   3.999   5.340
 5977WAT     H218334   2.466   3.993   5.272
 5978WAT      O18335   5.561   4.684   3.347
 5978WAT     H118336   5.654   4.702   3.362
 5978WAT     H218337   5.518   4.769   3.358
 5979WAT      O18338   3.770   0.078   0.231
 5979WAT     H118339   3.849   0.075   0.177
 5979WAT     H218340   3.699   0.096   0.169
 5980WAT      O18341   1.867   3.184   1.472
 5980WAT     H118342   1.923   3.213   1.544
 5980WAT     H218343   1.858   3.090   1.486
 5981WAT      O18344   5.195   3.245   0.317
 5981WAT     H118345   5.236   3.159   0.304
 5981WAT     H218346   5.267   3.300   0.348
 5982WAT      O18347   2.428   0.716   5.152
 5982WAT     H118348   2.353   0.774   5.145
 5982WAT     H218349   2.392   0.633   5.182
 5983WAT      O18350   5.317   6.433   1.967
 5983WAT     H118351   5.257   6.445   1.893
 5983WAT     H218352   5.270   6.376   2.027
 5984WAT      O18353   1.545   7.137   2.668
 5984WAT     H118354   1.585   7.224   2.668
 5984WAT     H218355   1.562   7.102   2.581
 5985WAT      O18356   7.602   3.906   1.572
 5985WAT     H118357   7.695   3.894   1.591
 5985WAT     H218358   7.597   3.915   1.477
 5986WAT      O18359   5.885   3.448   0.301
 5986WAT     H118360   5.814   3.496   0.258
 5986WAT     H218361   5.958   3.452   0.240
 5987WAT      O18362   3.087   5.497   1.830
 5987WAT     H118363   3.161   5.530   1.781
 5987WAT     H218364   3.011   5.518   1.776
 5988WAT      O18365   7.079   1.619   5.144
 5988WAT     H118366   7.044   1.567   5.072
 5988WAT     H218367   7.171   1.631   5.123
 5989WAT      O18368   1.616   3.663   3.776
 5989WAT     H118369   1.582   3.740   3.731
 5989WAT     H218370   1.639   3.694   3.864
 5990WAT      O18371   6.839   0.318   5.097
 5990WAT     H118372   6.752   0.330   5.059
 5990WAT     H218373   6.884   0.260   5.036
 5991WAT      O18374   5.586   5.164   5.108
 5991WAT     H118375   5.661   5.108   5.088
 5991WAT     H218376   5.547   5.184   5.023
 5992WAT      O18377   5.679   5.712   3.881
 5992WAT     H118378   5.681   5.778   3.812
 5992WAT     H218379   5.738   5.748   3.949
 5993WAT      O18380   2.308   2.249   4.145
 5993WAT     H118381   2.342   2.336   4.126
 5993WAT     H218382   2.333   2.196   4.070
 5994WAT      O18383   5.886   1.603   4.170
 5994WAT     H118384   5.894   1.546   4.094
 5994WAT     H218385   5.976   1.615   4.201
 5995WAT      O18386   0.155   2.584   2.449
 5995WAT     H118387   0.132   2.670   2.483
 5995WAT     H218388   0.191   2.601   2.362
 5996WAT      O18389   2.678   0.478   2.605
 5996WAT     H118390   2.715   0.559   2.641
 5996WAT     H218391   2.669   0.420   2.681
 5997WAT      O18392   1.055   0.835   0.454
 5997WAT     H118393   1.141   0.826   0.413
 5997WAT     H218394   1.028   0.745   0.473
 5998WAT      O18395   7.458   3.109   6.025
 5998WAT     H118396   7.528   3.116   5.960
 5998WAT     H218397   7.395   3.177   5.999
 5999WAT      O18398   0.715   3.747   4.273
 5999WAT     H118399   0.647   3.759   4.206
 5999WAT     H218400   0.707   3.655   4.297
 6000WAT      O18401   7.036   4.975   3.617
 6000WAT     H118402   6.983   5.043   3.576
 6000WAT     H218403   6.979   4.898   3.621
 6001WAT      O18404   6.952   6.890   5.554
 6001WAT     H118405   6.878   6.836   5.580
 6001WAT     H218406   6.922   6.980   5.564
 6002WAT      O18407   6.666   1.820   3.572
 6002WAT     H118408   6.760   1.814   3.587
 6002WAT     H218409   6.658   1.850   3.481
 6003WAT      O18410   1.712   3.909   2.560
 6003WAT     H118411   1.690   3.827   2.604
 6003WAT     H218412   1.700   3.891   2.467
 6004WAT      O18413   5.290   6.145   4.656
 6004WAT     H118414   5.258   6.121   4.743
 6004WAT     H218415   5.305   6.061   4.612
 6005WAT      O18416   5.491   6.298   5.001
 6005WAT     H118417   5.440   6.232   4.954
 6005WAT     H218418   5.425   6.357   5.038
 6006WAT      O18419   2.162   6.644   4.447
 6006WAT     H118420   2.228   6.662   4.380
 6006WAT     H218421   2.091   6.600   4.399
 6007WAT      O18422   6.329   4.438   2.305
 6007WAT     H118423   6.259   4.375   2.288
 6007WAT     H218424   6.294   4.522   2.274
 6008WAT      O18425   1.090   2.381   1.124
 6008WAT     H118426   1.075   2.334   1.042
 6008WAT     H218427   1.078   2.314   1.192
 6009WAT      O18428   4.699   2.962   5.109
 6009WAT     H118429   4.629   2.958   5.044
 6009WAT     H218430   4.670   2.904   5.180
 6010WAT      O18431   2.711   6.356   3.963
 6010WAT     H118432   2.764   6.285   3.927
 6010WAT     H218433   2.750   6.436   3.926
 6011WAT      O18434   3.807   1.540   3.619
 6011WAT     H118435   3.898   1.525   3.591
 6011WAT     H218436   3.774   1.604   3.557
 6012WAT      O18437   4.359   5.485   2.742
 6012WAT     H118438   4.435   5.542   2.757
 6012WAT     H218439   4.286   5.532   2.781
 6013WAT      O18440   5.130   4.156   0.021
 6013WAT     H118441   5.068   4.171  -0.051
 6013WAT     H218442   5.173   4.074  -0.001
 6014WAT      O18443   6.838   4.220   4.844
 6014WAT     H118444   6.848   4.314   4.830
 6014WAT     H218445   6.744   4.205   4.841
 6015WAT      O18446   5.813   6.103   0.382
 6015WAT     H118447   5.760   6.112   0.461
 6015WAT     H218448   5.750   6.104   0.310
 6016WAT      O18449   3.718   0.553   4.498
 6016WAT     H118450   3.623   0.554   4.486
 6016WAT     H218451   3.746   0.471   4.457
 6017WAT      O18452   6.660   0.327   1.945
 6017WAT     H118453   6.571   0.298   1.963
 6017WAT     H218454   6.679   0.295   1.857
 6018WAT      O18455   6.068   6.977   1.952
 6018WAT     H118456   6.131   6.940   1.890
 6018WAT     H218457   6.099   7.067   1.967
 6019WAT      O18458   4.385   1.157   4.500
 6019WAT     H118459   4.461   1.127   4.449
 6019WAT     H218460   4.313   1.100   4.473
 6020WAT      O18461   1.672   6.700   5.732
 6020WAT     H118462   1.596   6.758   5.720
 6020WAT     H218463   1.704   6.722   5.820
 6021WAT      O18464   5.907   6.326   1.194
 6021WAT     H118465   5.939   6.242   1.226
 6021WAT     H218466   5.933   6.328   1.102
 6022WAT      O18467   4.872   6.055   5.631
 6022WAT     H118468   4.943   6.008   5.589
 6022WAT     H218469   4.825   6.098   5.559
 6023WAT      O18470   6.766   6.411   6.047
 6023WAT     H118471   6.752   6.386   5.955
 6023WAT     H218472   6.832   6.479   6.043
 6024WAT      O18473   1.177   3.256   5.238
 6024WAT     H118474   1.135   3.241   5.322
 6024WAT     H218475   1.210   3.170   5.212
 6025WAT      O18476   6.492   4.740   5.547
 6025WAT     H118477   6.585   4.736   5.523
 6025WAT     H218478   6.456   4.657   5.517
 6026WAT      O18479   5.204   3.525   0.659
 6026WAT     H118480   5.163   3.592   0.603
 6026WAT     H218481   5.154   3.445   0.640
 6027WAT      O18482   1.547   2.831   0.235
 6027WAT     H118483   1.547   2.890   0.159
 6027WAT     H218484   1.622   2.773   0.221
 6028WAT      O18485   4.402   4.935   0.115
 6028WAT     H118486   4.337   4.866   0.100
 6028WAT     H218487   4.441   4.950   0.028
 6029WAT      O18488   5.003   0.817   1.039
 6029WAT     H118489   4.922   0.788   0.997
 6029WAT     H218490   4.973   0.870   1.113
 6030WAT      O18491   6.596   2.717   5.773
 6030WAT     H118492   6.539   2.794   5.776
 6030WAT     H218493   6.594   2.689   5.682
 6031WAT      O18494   5.171   4.433   4.568
 6031WAT     H118495   5.123   4.466   4.643
 6031WAT     H218496   5.109   4.440   4.495
 6032WAT      O18497   7.209   0.288   1.562
 6032WAT     H118498   7.192   0.359   1.623
 6032WAT     H218499   7.165   0.314   1.481
 6033WAT      O18500   4.018   0.477   0.170
 6033WAT     H118501   4.050   0.433   0.249
 6033WAT     H218502   4.097   0.494   0.119
 6034WAT      O18503   5.607   6.658   3.789
 6034WAT     H118504   5.545   6.586   3.783
 6034WAT     H218505   5.562   6.732   3.749
 6035WAT      O18506   2.293   4.964   4.672
 6035WAT     H118507   2.204   4.933   4.658
 6035WAT     H218508   2.328   4.979   4.585
 6036WAT      O18509   7.458   0.552   2.338
 6036WAT     H118510   7.392   0.618   2.315
 6036WAT     H218511   7.425   0.471   2.299
 6037WAT      O18512   1.457   1.774   4.720
 6037WAT     H118513   1.464   1.733   4.634
 6037WAT     H218514   1.501   1.858   4.712
 6038WAT      O18515   2.572   1.733   1.536
 6038WAT     H118516   2.558   1.761   1.626
 6038WAT     H218517   2.665   1.743   1.521
 6039WAT      O18518   7.562   2.928   1.939
 6039WAT     H118519   7.645   2.956   1.899
 6039WAT     H218520   7.546   2.993   2.008
 6040WAT      O18521   6.030   0.391   0.023
 6040WAT     H118522   5.997   0.479   0.004
 6040WAT     H218523   6.116   0.389  -0.020
 6041WAT      O18524   2.821   0.707   5.502
 6041WAT     H118525   2.736   0.664   5.489
 6041WAT     H218526   2.816   0.744   5.590
 6042WAT      O18527   3.400   4.503   4.062
 6042WAT     H118528   3.465   4.438   4.090
 6042WAT     H218529   3.336   4.504   4.133
 6043WAT      O18530   5.417   0.930   1.699
 6043WAT     H118531   5.379   0.845   1.679
 6043WAT     H218532   5.479   0.912   1.770
 6044WAT      O18533   0.599   4.105   2.898
 6044WAT     H118534   0.662   4.170   2.867
 6044WAT     H218535   0.605   4.033   2.835
 6045WAT      O18536   7.108   1.379   2.891
 6045WAT     H118537   7.041   1.438   2.925
 6045WAT     H218538   7.155   1.431   2.826
 6046WAT      O18539   4.404   5.777   5.287
 6046WAT     H118540   4.350   5.777   5.208
 6046WAT     H218541   4.482   5.727   5.264
 6047WAT      O18542   2.584   1.698   0.484
 6047WAT     H118543   2.668   1.655   0.501
 6047WAT     H218544   2.596   1.743   0.400
 6048WAT      O18545   7.004   0.290   4.634
 6048WAT     H118546   6.975   0.374   4.670
 6048WAT     H218547   7.095   0.306   4.607
 6049WAT      O18548   4.029   6.046   4.530
 6049WAT     H118549   3.947   6.004   4.502
 6049WAT     H218550   4.048   6.006   4.614
 6050WAT      O18551   3.574   0.173   4.927
 6050WAT     H118552   3.507   0.105   4.928
 6050WAT     H218553   3.653   0.128   4.895
 6051WAT      O18554   6.597   2.341   5.697
 6051WAT     H118555   6.574   2.389   5.776
 6051WAT     H218556   6.572   2.250   5.716
 6052WAT      O18557   4.345   0.787   6.085
 6052WAT     H118558   4.294   0.777   6.005
 6052WAT     H218559   4.281   0.775   6.156
 6053WAT      O18560   2.580   3.271   5.460
 6053WAT     H118561   2.606   3.362   5.474
 6053WAT     H218562   2.545   3.269   5.372
 6054WAT      O18563   7.394   5.467   1.904
 6054WAT     H118564   7.390   5.522   1.982
 6054WAT     H218565   7.423   5.381   1.937
 6055WAT      O18566   6.211   3.438   3.025
 6055WAT     H118567   6.280   3.398   2.973
 6055WAT     H218568   6.158   3.364   3.056
 6056WAT      O18569   3.590   2.641   4.278
 6056WAT     H118570   3.622   2.626   4.189
 6056WAT     H218571   3.544   2.725   4.273
 6057WAT      O18572   6.411   4.500   4.791
 6057WAT     H118573   6.461   4.437   4.738
 6057WAT     H218574   6.330   4.512   4.742
 6058WAT      O18575   7.035   4.987   2.042
 6058WAT     H118576   7.017   5.048   1.970
 6058WAT     H218577   7.130   4.984   2.047
 6059WAT      O18578   0.356   4.934   0.598
 6059WAT     H118579   0.438   4.922   0.549
 6059WAT     H218580   0.357   5.027   0.623
 6060WAT      O18581   3.950   2.049   2.860
 6060WAT     H118582   4.011   2.004   2.802
 6060WAT     H218583   3.982   2.139   2.863
 6061WAT      O18584   6.342   0.005   0.497
 6061WAT     H118585   6.345   0.095   0.464
 6061WAT     H218586   6.315   0.014   0.589
 6062WAT      O18587   4.410   1.169   3.930
 6062WAT     H118588   4.387   1.081   3.900
 6062WAT     H218589   4.329   1.204   3.967
 6063WAT      O18590   0.762   2.136   1.551
 6063WAT     H118591   0.748   2.042   1.541
 6063WAT     H218592   0.701   2.177   1.490
 6064WAT      O18593   0.215   7.146   2.727
 6064WAT     H118594   0.159   7.221   2.707
 6064WAT     H218595   0.286   7.151   2.663
 6065WAT      O18596   0.903   2.456   2.802
 6065WAT     H118597   0.946   2.378   2.837
 6065WAT     H218598   0.970   2.500   2.750
 6066WAT      O18599   0.340   1.708   5.844
 6066WAT     H118600   0.417   1.659   5.816
 6066WAT     H218601   0.278   1.697   5.772
 6067WAT      O18602   5.545   3.834   5.911
 6067WAT     H118603   5.552   3.883   5.993
 6067WAT     H218604   5.487   3.761   5.932
 6068WAT      O18605   1.520   2.719   2.276
 6068WAT     H118606   1.560   2.734   2.190
 6068WAT     H218607   1.593   2.727   2.338
 6069WAT      O18608   2.202   2.416   3.065
 6069WAT     H118609   2.291   2.412   3.029
 6069WAT     H218610   2.193   2.506   3.096
 6070WAT      O18611   3.563   4.749   1.628
 6070WAT     H118612   3.527   4.698   1.700
 6070WAT     H218613   3.489   4.763   1.569
 6071WAT      O18614   7.433   1.724   1.886
 6071WAT     H118615   7.486   1.795   1.850
 6071WAT     H218616   7.447   1.651   1.825
 6072WAT      O18617   5.654   2.789   5.906
 6072WAT     H118618   5.646   2.869   5.854
 6072WAT     H218619   5.708   2.814   5.981
 6073WAT      O18620   3.877   6.081   1.295
 6073WAT     H118621   3.819   6.094   1.370
 6073WAT     H218622   3.950   6.029   1.330
 6074WAT      O18623   6.768   6.191   4.498
 6074WAT     H118624   6.720   6.109   4.502
 6074WAT     H218625   6.852   6.172   4.539
 6075WAT      O18626   0.249   0.815   1.998
 6075WAT     H118627   0.238   0.885   2.063
 6075WAT     H218628   0.197   0.743   2.033
 6076WAT      O18629   0.796   6.343   5.638
 6076WAT     H118630   0.850   6.335   5.559
 6076WAT     H218631   0.713   6.378   5.606
 6077WAT      O18632   4.988   2.084   3.027
 6077WAT     H118633   5.077   2.063   3.056
 6077WAT     H218634   4.961   2.010   2.974
 6078WAT      O18635   3.100   1.237   1.510
 6078WAT     H118636   3.111   1.310   1.450
 6078WAT     H218637   3.058   1.275   1.587
 6079WAT      O18638   2.068   3.541   1.304
 6079WAT     H118639   2.098   3.597   1.376
 6079WAT     H218640   2.148   3.505   1.266
 6080WAT      O18641   5.786   3.283   2.366
 6080WAT     H118642   5.820   3.365   2.329
 6080WAT     H218643   5.790   3.221   2.294
 6081WAT      O18644   4.766   0.804   4.644
 6081WAT     H118645   4.804   0.861   4.578
 6081WAT     H218646   4.839   0.780   4.701
 6082WAT      O18647   3.552   4.087   4.565
 6082WAT     H118648   3.561   4.148   4.492
 6082WAT     H218649   3.639   4.048   4.574
 6083WAT      O18650   0.644   2.805   0.216
 6083WAT     H118651   0.695   2.724   0.215
 6083WAT     H218652   0.709   2.874   0.228
 6084WAT      O18653   3.100   3.390   1.585
 6084WAT     H118654   3.012   3.423   1.602
 6084WAT     H218655   3.124   3.428   1.500
 6085WAT      O18656   1.521   4.051   1.059
 6085WAT     H118657   1.524   3.967   1.105
 6085WAT     H218658   1.461   4.037   0.986
 6086WAT      O18659   2.925   4.107   4.246
 6086WAT     H118660   2.942   4.013   4.235
 6086WAT     H218661   2.997   4.149   4.199
 6087WAT      O18662   1.869   5.080   4.051
 6087WAT     H118663   1.818   5.008   4.015
 6087WAT     H218664   1.906   5.124   3.975
 6088WAT      O18665   4.577   0.507   5.848
 6088WAT     H118666   4.626   0.476   5.772
 6088WAT     H218667   4.642   0.554   5.900
 6089WAT      O18668   1.219   4.066   4.018
 6089WAT     H118669   1.217   4.116   3.936
 6089WAT     H218670   1.137   4.089   4.061
 6090WAT      O18671   7.070   5.811   0.845
 6090WAT     H118672   7.040   5.815   0.936
 6090WAT     H218673   7.050   5.722   0.817
 6091WAT      O18674   6.782   0.152   0.747
 6091WAT     H118675   6.855   0.109   0.792
 6091WAT     H218676   6.745   0.211   0.812
 6092WAT      O18677   1.927   6.374   1.621
 6092WAT     H118678   1.960   6.354   1.709
 6092WAT     H218679   1.858   6.310   1.607
 6093WAT      O18680   2.377   2.116   3.004
 6093WAT     H118681   2.469   2.125   2.978
 6093WAT     H218682   2.334   2.079   2.928
 6094WAT      O18683   6.058   2.848   4.777
 6094WAT     H118684   6.075   2.796   4.698
 6094WAT     H218685   6.032   2.934   4.744
 6095WAT      O18686   0.757   3.910   2.027
 6095WAT     H118687   0.662   3.904   2.019
 6095WAT     H218688   0.772   3.935   2.118
 6096WAT      O18689   2.613   5.870   3.894
 6096WAT     H118690   2.701   5.864   3.931
 6096WAT     H218691   2.621   5.832   3.807
 6097WAT      O18692   4.992   0.835   4.792
 6097WAT     H118693   5.059   0.833   4.724
 6097WAT     H218694   4.940   0.913   4.772
 6098WAT      O18695   3.761   4.287   1.938
 6098WAT     H118696   3.716   4.229   2.000
 6098WAT     H218697   3.722   4.265   1.853
 6099WAT      O18698   7.234   2.232   0.082
 6099WAT     H118699   7.199   2.231   0.171
 6099WAT     H218700   7.175   2.290   0.033
 6100WAT      O18701   1.544   6.722   3.157
 6100WAT     H118702   1.562   6.808   3.122
 6100WAT     H218703   1.478   6.737   3.226
 6101WAT      O18704   2.707   1.170   4.711
 6101WAT     H118705   2.691   1.099   4.649
 6101WAT     H218706   2.799   1.193   4.697
 6102WAT      O18707   1.638   0.702   4.485
 6102WAT     H118708   1.678   0.626   4.443
 6102WAT     H218709   1.544   0.685   4.480
 6103WAT      O18710   7.288   2.886   5.241
 6103WAT     H118711   7.306   2.796   5.269
 6103WAT     H218712   7.285   2.881   5.146
 6104WAT      O18713   1.291   0.147   5.841
 6104WAT     H118714   1.295   0.060   5.801
 6104WAT     H218715   1.327   0.206   5.775
 6105WAT      O18716   6.722   5.296   0.470
 6105WAT     H118717   6.664   5.220   0.467
 6105WAT     H218718   6.803   5.267   0.428
 6106WAT      O18719   1.815   2.875   3.703
 6106WAT     H118720   1.862   2.910   3.779
 6106WAT     H218721   1.771   2.952   3.666
 6107WAT      O18722   5.891   4.183   2.607
 6107WAT     H118723   5.954   4.155   2.541
 6107WAT     H218724   5.816   4.215   2.556
 6108WAT      O18725   0.861   5.680   3.370
 6108WAT     H118726   0.942   5.676   3.320
 6108WAT     H218727   0.801   5.622   3.323
 6109WAT      O18728   5.808   5.643   1.010
 6109WAT     H118729   5.889   5.681   0.974
 6109WAT     H218730   5.764   5.605   0.934
 6110WAT      O18731   3.600   0.265   5.195
 6110WAT     H118732   3.518   0.307   5.220
 6110WAT     H218733   3.576   0.209   5.121
 6111WAT      O18734   1.027   6.278   1.651
 6111WAT     H118735   0.965   6.318   1.590
 6111WAT     H218736   1.085   6.226   1.596
 6112WAT      O18737   5.537   2.696   0.760
 6112WAT     H118738   5.476   2.666   0.694
 6112WAT     H218739   5.587   2.766   0.717
 6113WAT      O18740   0.026   2.529   3.726
 6113WAT     H118741   0.037   2.498   3.636
 6113WAT     H218742   0.066   2.460   3.780
 6114WAT      O18743   2.207   0.793   4.460
 6114WAT     H118744   2.156   0.772   4.381
 6114WAT     H218745   2.204   0.888   4.465
 6115WAT      O18746   2.415   4.024   5.813
 6115WAT     H118747   2.325   4.031   5.781
 6115WAT     H218748   2.469   4.034   5.735
 6116WAT      O18749   2.976   2.520   4.951
 6116WAT     H118750   2.939   2.434   4.932
 6116WAT     H218751   3.006   2.514   5.042
 6117WAT      O18752   2.016   4.571   4.172
 6117WAT     H118753   1.944   4.595   4.230
 6117WAT     H218754   2.000   4.480   4.149
 6118WAT      O18755   1.591   4.412   0.315
 6118WAT     H118756   1.656   4.399   0.245
 6118WAT     H218757   1.568   4.504   0.309
 6119WAT      O18758   0.283   3.914   4.515
 6119WAT     H118759   0.365   3.880   4.548
 6119WAT     H218760   0.253   3.976   4.582
 6120WAT      O18761   2.597   1.513   3.799
 6120WAT     H118762   2.601   1.604   3.772
 6120WAT     H218763   2.558   1.467   3.725
 6121WAT      O18764   7.540   0.958   0.702
 6121WAT     H118765   7.504   1.024   0.643
 6121WAT     H218766   7.631   0.948   0.674
 6122WAT      O18767   5.901   6.903   4.783
 6122WAT     H118768   5.810   6.930   4.781
 6122WAT     H218769   5.906   6.829   4.723
 6123WAT      O18770   0.127   6.319   1.759
 6123WAT     H118771   0.219   6.336   1.737
 6123WAT     H218772   0.122   6.330   1.854
 6124WAT      O18773   0.632   0.419   5.904
 6124WAT     H118774   0.588   0.409   5.820
 6124WAT     H218775   0.662   0.331   5.926
 6125WAT      O18776  -0.000   1.635   5.676
 6125WAT     H118777   0.027   1.549   5.642
 6125WAT     H218778  -0.022   1.686   5.598
 6126WAT      O18779   5.584   2.309   0.607
 6126WAT     H118780   5.509   2.368   0.605
 6126WAT     H218781   5.575   2.256   0.528
 6127WAT      O18782   6.039   1.412   4.969
 6127WAT     H118783   5.964   1.356   4.949
 6127WAT     H218784   6.012   1.499   4.938
 6128WAT      O18785   6.517   6.709   0.337
 6128WAT     H118786   6.427   6.732   0.315
 6128WAT     H218787   6.568   6.734   0.259
 6129WAT      O18788   4.611   1.366   4.442
 6129WAT     H118789   4.559   1.325   4.373
 6129WAT     H218790   4.570   1.452   4.456
 6130WAT      O18791   4.998   2.039   1.674
 6130WAT     H118792   5.003   2.077   1.587
 6130WAT     H218793   5.033   1.950   1.664
 6131WAT      O18794   6.077   3.929   2.038
 6131WAT     H118795   6.123   3.949   2.119
 6131WAT     H218796   5.988   3.909   2.065
 6132WAT      O18797   5.126   6.507   1.783
 6132WAT     H118798   5.148   6.598   1.767
 6132WAT     H218799   5.032   6.502   1.764
 6133WAT      O18800   6.096   4.866   2.641
 6133WAT     H118801   6.064   4.939   2.588
 6133WAT     H218802   6.039   4.865   2.718
 6134WAT      O18803   2.618   1.941   3.861
 6134WAT     H118804   2.551   1.906   3.802
 6134WAT     H218805   2.690   1.877   3.856
 6135WAT      O18806   1.945   5.597   1.197
 6135WAT     H118807   1.978   5.591   1.107
 6135WAT     H218808   2.006   5.544   1.248
 6136WAT      O18809   3.232   6.159   1.871
 6136WAT     H118810   3.179   6.124   1.799
 6136WAT     H218811   3.196   6.118   1.950
 6137WAT      O18812   3.677   2.234   5.715
 6137WAT     H118813   3.667   2.284   5.635
 6137WAT     H218814   3.587   2.212   5.741
 6138WAT      O18815   0.127   0.031   1.787
 6138WAT     H118816   0.174  -0.051   1.802
 6138WAT     H218817   0.189   0.086   1.738
 6139WAT      O18818   2.050   5.969   4.464
 6139WAT     H118819   1.974   5.990   4.411
 6139WAT     H218820   2.112   5.928   4.403
 6140WAT      O18821   1.471   3.764   4.603
 6140WAT     H118822   1.536   3.703   4.638
 6140WAT     H218823   1.516   3.806   4.529
 6141WAT      O18824   1.772   2.047   2.635
 6141WAT     H118825   1.755   2.054   2.541
 6141WAT     H218826   1.722   1.970   2.662
 6142WAT      O18827   4.698   1.473   3.202
 6142WAT     H118828   4.650   1.444   3.280
 6142WAT     H218829   4.697   1.568   3.208
 6143WAT      O18830   6.651   6.639   5.914
 6143WAT     H118831   6.577   6.699   5.920
 6143WAT     H218832   6.624   6.563   5.965
 6144WAT      O18833   4.054   2.038   2.479
 6144WAT     H118834   3.968   2.070   2.453
 6144WAT     H218835   4.079   1.977   2.409
 6145WAT      O18836   0.278   2.030   3.841
 6145WAT     H118837   0.260   2.026   3.747
 6145WAT     H218838   0.288   2.123   3.860
 6146WAT      O18839   6.871   4.753   1.843
 6146WAT     H118840   6.917   4.798   1.773
 6146WAT     H218841   6.904   4.794   1.923
 6147WAT      O18842   0.739   7.018   5.960
 6147WAT     H118843   0.815   6.990   5.909
 6147WAT     H218844   0.742   6.966   6.040
 6148WAT      O18845   5.874   6.279   2.419
 6148WAT     H118846   5.892   6.341   2.347
 6148WAT     H218847   5.851   6.198   2.375
 6149WAT      O18848   7.218   2.976   2.680
 6149WAT     H118849   7.190   2.986   2.771
 6149WAT     H218850   7.283   3.045   2.667
 6150WAT      O18851   3.820   3.617   5.289
 6150WAT     H118852   3.753   3.635   5.356
 6150WAT     H218853   3.856   3.703   5.268
 6151WAT      O18854   1.731   3.257   0.248
 6151WAT     H118855   1.783   3.191   0.202
 6151WAT     H218856   1.747   3.338   0.200
 6152WAT      O18857   4.981   1.804   0.035
 6152WAT     H118858   4.971   1.718   0.076
 6152WAT     H218859   4.982   1.785  -0.059
 6153WAT      O18860   5.750   3.080   4.418
 6153WAT     H118861   5.837   3.079   4.377
 6153WAT     H218862   5.764   3.125   4.502
 6154WAT      O18863   6.409   5.928   3.502
 6154WAT     H118864   6.366   5.875   3.569
 6154WAT     H218865   6.435   5.865   3.435
 6155WAT      O18866   3.883   0.729   2.624
 6155WAT     H118867   3.841   0.679   2.695
 6155WAT     H218868   3.848   0.690   2.544
 6156WAT      O18869   1.925   0.178   6.192
 6156WAT     H118870   1.996   0.238   6.214
 6156WAT     H218871   1.862   0.232   6.144
 6157WAT      O18872   0.188   5.090   4.413
 6157WAT     H118873   0.226   5.152   4.476
 6157WAT     H218874   0.099   5.074   4.445
 6158WAT      O18875   1.634   4.585   0.955
 6158WAT     H118876   1.623   4.490   0.956
 6158WAT     H218877   1.729   4.598   0.951
 6159WAT      O18878   0.491   6.329   3.782
 6159WAT     H118879   0.517   6.238   3.792
 6159WAT     H218880   0.479   6.341   3.688
 6160WAT      O18881   6.894   0.042   4.538
 6160WAT     H118882   6.955   0.007   4.474
 6160WAT     H218883   6.921   0.133   4.550
 6161WAT      O18884   1.094   0.121   1.371
 6161WAT     H118885   1.073   0.028   1.381
 6161WAT     H218886   1.168   0.122   1.311
 6162WAT      O18887   6.015   1.492   5.274
 6162WAT     H118888   6.022   1.472   5.181
 6162WAT     H218889   5.981   1.412   5.314
 6163WAT      O18890   6.280   6.855   4.548
 6163WAT     H118891   6.259   6.927   4.490
 6163WAT     H218892   6.373   6.838   4.533
 6164WAT      O18893   2.845   4.861   0.411
 6164WAT     H118894   2.785   4.798   0.370
 6164WAT     H218895   2.892   4.901   0.337
 6165WAT      O18896   3.086   1.078   2.199
 6165WAT     H118897   3.175   1.047   2.179
 6165WAT     H218898   3.035   1.057   2.121
 6166WAT      O18899   1.473   6.928   5.911
 6166WAT     H118900   1.568   6.929   5.920
 6166WAT     H218901   1.455   6.987   5.837
 6167WAT      O18902   7.424   4.058   2.617
 6167WAT     H118903   7.365   4.024   2.549
 6167WAT     H218904   7.459   3.979   2.659
 6168WAT      O18905   2.761   0.114   5.810
 6168WAT     H118906   2.740   0.201   5.775
 6168WAT     H218907   2.692   0.057   5.775
 6169WAT      O18908   2.676   2.115   1.651
 6169WAT     H118909   2.624   2.125   1.571
 6169WAT     H218910   2.767   2.118   1.620
 6170WAT      O18911   4.546   6.346   0.656
 6170WAT     H118912   4.567   6.341   0.563
 6170WAT     H218913   4.581   6.266   0.694
 6171WAT      O18914   7.490   2.313   5.650
 6171WAT     H118915   7.435   2.293   5.574
 6171WAT     H218916   7.438   2.286   5.725
 6172WAT      O18917   6.380   2.692   2.220
 6172WAT     H118918   6.395   2.708   2.127
 6172WAT     H218919   6.466   2.666   2.254
 6173WAT      O18920   4.509   6.726   2.114
 6173WAT     H118921   4.565   6.797   2.083
 6173WAT     H218922   4.426   6.738   2.067
 6174WAT      O18923   3.742   1.579   4.596
 6174WAT     H118924   3.837   1.589   4.601
 6174WAT     H218925   3.729   1.500   4.543
 6175WAT      O18926   7.199   6.086   1.904
 6175WAT     H118927   7.201   6.013   1.966
 6175WAT     H218928   7.245   6.053   1.826
 6176WAT      O18929   0.789   4.196   4.750
 6176WAT     H118930   0.764   4.120   4.696
 6176WAT     H218931   0.772   4.271   4.693
 6177WAT      O18932   6.107   5.567   3.295
 6177WAT     H118933   6.139   5.655   3.276
 6177WAT     H218934   6.017   5.565   3.262
 6178WAT      O18935   3.136   7.033   4.905
 6178WAT     H118936   3.153   6.952   4.953
 6178WAT     H218937   3.040   7.040   4.903
 6179WAT      O18938   5.374   3.431   0.339
 6179WAT     H118939   5.391   3.434   0.245
 6179WAT     H218940   5.284   3.463   0.348
 6180WAT      O18941   7.138   1.782   5.407
 6180WAT     H118942   7.147   1.814   5.318
 6180WAT     H218943   7.142   1.687   5.400
 6181WAT      O18944   6.124   2.529   2.331
 6181WAT     H118945   6.059   2.459   2.335
 6181WAT     H218946   6.091   2.587   2.262
 6182WAT      O18947   7.398   1.390   2.459
 6182WAT     H118948   7.332   1.459   2.471
 6182WAT     H218949   7.375   1.349   2.376
 6183WAT      O18950   6.866   2.835   1.573
 6183WAT     H118951   6.952   2.858   1.607
 6183WAT     H218952   6.825   2.919   1.551
 6184WAT      O18953   5.344   6.387   0.330
 6184WAT     H118954   5.394   6.444   0.273
 6184WAT     H218955   5.259   6.377   0.286
 6185WAT      O18956   1.001   1.521   0.497
 6185WAT     H118957   1.056   1.452   0.459
 6185WAT     H218958   1.038   1.534   0.585
 6186WAT      O18959   4.803   3.545   0.776
 6186WAT     H118960   4.886   3.575   0.813
 6186WAT     H218961   4.823   3.528   0.684
 6187WAT      O18962   5.035   2.282   3.705
 6187WAT     H118963   4.943   2.274   3.677
 6187WAT     H218964   5.076   2.335   3.637
 6188WAT      O18965   3.729   1.238   1.226
 6188WAT     H118966   3.803   1.236   1.165
 6188WAT     H218967   3.652   1.249   1.171
 6189WAT      O18968   0.630   5.459   1.849
 6189WAT     H118969   0.689   5.455   1.925
 6189WAT     H218970   0.664   5.392   1.789
 6190WAT      O18971   7.330   4.212   4.408
 6190WAT     H118972   7.257   4.174   4.456
 6190WAT     H218973   7.311   4.195   4.316
 6191WAT      O18974   2.882   2.224   2.957
 6191WAT     H118975   2.886   2.202   3.050
 6191WAT     H218976   2.960   2.183   2.919
 6192WAT      O18977   3.211   1.707   6.207
 6192WAT     H118978   3.270   1.656   6.152
 6192WAT     H218979   3.143   1.738   6.147
 6193WAT      O18980   7.506   7.109   2.662
 6193WAT     H118981   7.569   7.037   2.671
 6193WAT     H218982   7.506   7.152   2.747
 6194WAT      O18983   4.957   6.725   0.984
 6194WAT     H118984   5.032   6.687   0.939
 6194WAT     H218985   4.897   6.652   0.996
 6195WAT      O18986   7.305   5.168   1.366
 6195WAT     H118987   7.312   5.257   1.329
 6195WAT     H218988   7.296   5.111   1.290
 6196WAT      O18989   7.318   1.208   3.624
 6196WAT     H118990   7.273   1.124   3.627
 6196WAT     H218991   7.385   1.197   3.556
 6197WAT      O18992   7.344   2.453   5.887
 6197WAT     H118993   7.258   2.464   5.846
 6197WAT     H218994   7.400   2.517   5.842
 6198WAT      O18995   2.396   6.074   3.934
 6198WAT     H118996   2.473   6.024   3.908
 6198WAT     H218997   2.331   6.055   3.866
 6199WAT      O18998   2.553   4.017   5.594
 6199WAT     H118999   2.604   4.091   5.560
 6199WAT     H219000   2.506   3.983   5.517
 6200WAT      O19001   7.166   0.692   5.724
 6200WAT     H119002   7.233   0.748   5.686
 6200WAT     H219003   7.156   0.621   5.660
 6201WAT      O19004   3.016   0.443   2.929
 6201WAT     H119005   3.024   0.503   2.855
 6201WAT     H219006   2.993   0.359   2.888
 6202WAT      O19007   6.504   3.940   0.795
 6202WAT     H119008   6.472   4.015   0.845
 6202WAT     H219009   6.480   3.959   0.705
 6203WAT      O19010   7.024   4.036   2.745
 6203WAT     H119011   7.096   4.007   2.801
 6203WAT     H219012   7.019   3.969   2.676
 6204WAT      O19013   0.090   3.657   3.750
 6204WAT     H119014   0.078   3.727   3.816
 6204WAT     H219015   0.002   3.638   3.720
 6205WAT      O19016   7.516   0.153   2.460
 6205WAT     H119017   7.534   0.065   2.429
 6205WAT     H219018   7.452   0.188   2.399
 6206WAT      O19019   5.487   6.004   4.329
 6206WAT     H119020   5.563   5.961   4.367
 6206WAT     H219021   5.413   5.976   4.383
 6207WAT      O19022   4.514   3.176   2.044
 6207WAT     H119023   4.455   3.248   2.068
 6207WAT     H219024   4.505   3.169   1.949
 6208WAT      O19025   3.976   0.452   3.870
 6208WAT     H119026   4.061   0.475   3.833
 6208WAT     H219027   3.926   0.418   3.796
 6209WAT      O19028   0.202   6.558   3.248
 6209WAT     H119029   0.155   6.628   3.292
 6209WAT     H219030   0.135   6.497   3.220
 6210WAT      O19031   1.421   6.325   4.096
 6210WAT     H119032   1.395   6.335   4.005
 6210WAT     H219033   1.391   6.238   4.121
 6211WAT      O19034   1.018   2.254   0.894
 6211WAT     H119035   1.066   2.196   0.835
 6211WAT     H219036   0.931   2.215   0.901
 6212WAT      O19037   6.477   5.682   0.276
 6212WAT     H119038   6.536   5.745   0.317
 6212WAT     H219039   6.407   5.735   0.238
 6213WAT      O19040   6.577   5.435   1.754
 6213WAT     H119041   6.595   5.442   1.660
 6213WAT     H219042   6.583   5.341   1.772
 6214WAT      O19043   7.327   2.198   3.169
 6214WAT     H119044   7.301   2.129   3.231
 6214WAT     H219045   7.291   2.278   3.207
 6215WAT      O19046   6.246   3.169   1.316
 6215WAT     H119047   6.287   3.234   1.259
 6215WAT     H219048   6.320   3.125   1.357
 6216WAT      O19049   2.850   6.900   1.144
 6216WAT     H119050   2.923   6.957   1.120
 6216WAT     H219051   2.773   6.956   1.136
 6217WAT      O19052   2.647   1.386   2.405
 6217WAT     H119053   2.642   1.461   2.346
 6217WAT     H219054   2.692   1.318   2.354
 6218WAT      O19055   4.391   1.563   4.871
 6218WAT     H119056   4.379   1.477   4.831
 6218WAT     H219057   4.413   1.621   4.797
 6219WAT      O19058   3.972   2.584   0.044
 6219WAT     H119059   3.905   2.628   0.096
 6219WAT     H219060   3.974   2.631  -0.039
 6220WAT      O19061   5.883   3.061   2.236
 6220WAT     H119062   5.971   3.081   2.267
 6220WAT     H219063   5.896   3.020   2.150
 6221WAT      O19064   0.862   1.082   1.748
 6221WAT     H119065   0.801   1.145   1.787
 6221WAT     H219066   0.808   1.006   1.729
 6222WAT      O19067   1.894   5.411   6.037
 6222WAT     H119068   1.824   5.459   6.080
 6222WAT     H219069   1.855   5.328   6.011
 6223WAT      O19070   1.685   6.086   0.695
 6223WAT     H119071   1.683   6.036   0.777
 6223WAT     H219072   1.645   6.170   0.719
 6224WAT      O19073   2.329   2.863   5.142
 6224WAT     H119074   2.370   2.949   5.136
 6224WAT     H219075   2.340   2.825   5.055
 6225WAT      O19076   2.721   2.768   1.345
 6225WAT     H119077   2.752   2.856   1.322
 6225WAT     H219078   2.800   2.713   1.341
 6226WAT      O19079   1.240   0.827   3.259
 6226WAT     H119080   1.311   0.870   3.212
 6226WAT     H219081   1.232   0.741   3.217
 6227WAT      O19082   3.553   0.401   1.726
 6227WAT     H119083   3.530   0.413   1.633
 6227WAT     H219084   3.571   0.307   1.734
 6228WAT      O19085   4.741   3.706   3.392
 6228WAT     H119086   4.677   3.692   3.322
 6228WAT     H219087   4.817   3.743   3.349
 6229WAT      O19088   4.356   0.014   1.801
 6229WAT     H119089   4.288   0.014   1.734
 6229WAT     H219090   4.422   0.075   1.768
 6230WAT      O19091   7.344   1.409   5.849
 6230WAT     H119092   7.365   1.429   5.940
 6230WAT     H219093   7.303   1.489   5.816
 6231WAT      O19094   2.685   3.499   1.868
 6231WAT     H119095   2.758   3.540   1.821
 6231WAT     H219096   2.653   3.567   1.926
 6232WAT      O19097   5.368   1.335   0.941
 6232WAT     H119098   5.293   1.300   0.989
 6232WAT     H219099   5.394   1.263   0.882
 6233WAT      O19100   0.991   1.286   4.906
 6233WAT     H119101   0.903   1.323   4.906
 6233WAT     H219102   1.047   1.356   4.870
 6234WAT      O19103   2.047   5.314   4.619
 6234WAT     H119104   2.119   5.283   4.564
 6234WAT     H219105   1.973   5.257   4.597
 6235WAT      O19106   2.332   0.416   3.109
 6235WAT     H119107   2.288   0.387   3.030
 6235WAT     H219108   2.369   0.335   3.147
 6236WAT      O19109   6.547   4.292   0.850
 6236WAT     H119110   6.621   4.347   0.821
 6236WAT     H219111   6.579   4.250   0.930
 6237WAT      O19112   4.015   5.043   3.540
 6237WAT     H119113   3.971   5.090   3.611
 6237WAT     H219114   3.971   4.958   3.537
 6238WAT      O19115   3.198   2.652   3.945
 6238WAT     H119116   3.191   2.640   3.850
 6238WAT     H219117   3.152   2.734   3.962
 6239WAT      O19118   2.539   2.139   2.202
 6239WAT     H119119   2.486   2.122   2.125
 6239WAT     H219120   2.527   2.233   2.219
 6240WAT      O19121   5.574   4.112   2.305
 6240WAT     H119122   5.652   4.058   2.308
 6240WAT     H219123   5.506   4.058   2.346
 6241WAT      O19124   4.234   4.481   1.902
 6241WAT     H119125   4.251   4.571   1.875
 6241WAT     H219126   4.138   4.474   1.904
 6242WAT      O19127   5.997   4.446   6.058
 6242WAT     H119128   5.980   4.437   5.964
 6242WAT     H219129   6.052   4.524   6.065
 6243WAT      O19130   2.598   5.111   2.425
 6243WAT     H119131   2.664   5.042   2.421
 6243WAT     H219132   2.516   5.064   2.440
 6244WAT      O19133   1.834   6.837   1.324
 6244WAT     H119134   1.856   6.777   1.395
 6244WAT     H219135   1.905   6.901   1.323
 6245WAT      O19136   7.532   6.409   4.841
 6245WAT     H119137   7.506   6.500   4.859
 6245WAT     H219138   7.480   6.357   4.902
 6246WAT      O19139   0.154   6.685   5.817
 6246WAT     H119140   0.160   6.607   5.873
 6246WAT     H219141   0.092   6.660   5.748
 6247WAT      O19142   5.484   6.905   5.717
 6247WAT     H119143   5.394   6.892   5.687
 6247WAT     H219144   5.486   6.867   5.805
 6248WAT      O19145   0.165   2.603   5.068
 6248WAT     H119146   0.145   2.632   4.979
 6248WAT     H219147   0.100   2.535   5.086
 6249WAT      O19148   1.543   1.429   1.630
 6249WAT     H119149   1.546   1.333   1.624
 6249WAT     H219150   1.504   1.456   1.547
 6250WAT      O19151   6.298   2.109   2.728
 6250WAT     H119152   6.237   2.183   2.733
 6250WAT     H219153   6.256   2.040   2.779
 6251WAT      O19154   1.557   2.348   2.478
 6251WAT     H119155   1.487   2.323   2.417
 6251WAT     H219156   1.520   2.330   2.565
 6252WAT      O19157   3.191   6.798   2.440
 6252WAT     H119158   3.234   6.873   2.398
 6252WAT     H219159   3.255   6.766   2.503
 6253WAT      O19160   1.592   3.267   3.968
 6253WAT     H119161   1.660   3.334   3.968
 6253WAT     H219162   1.630   3.194   4.017
 6254WAT      O19163   4.191   6.102   1.639
 6254WAT     H119164   4.110   6.152   1.623
 6254WAT     H219165   4.168   6.042   1.709
 6255WAT      O19166   3.981   2.462   5.445
 6255WAT     H119167   3.984   2.499   5.533
 6255WAT     H219168   4.000   2.536   5.387
 6256WAT      O19169   3.756   2.036   0.702
 6256WAT     H119170   3.807   2.091   0.643
 6256WAT     H219171   3.785   1.946   0.681
 6257WAT      O19172   6.454   0.879   0.809
 6257WAT     H119173   6.465   0.934   0.731
 6257WAT     H219174   6.508   0.922   0.876
 6258WAT      O19175   6.909   4.547   4.163
 6258WAT     H119176   6.958   4.481   4.211
 6258WAT     H219177   6.976   4.597   4.116
 6259WAT      O19178   1.829   2.834   1.228
 6259WAT     H119179   1.816   2.900   1.160
 6259WAT     H219180   1.757   2.773   1.215
 6260WAT      O19181   2.778   6.410   1.295
 6260WAT     H119182   2.753   6.326   1.256
 6260WAT     H219183   2.730   6.475   1.244
 6261WAT      O19184   5.907   4.967   4.208
 6261WAT     H119185   5.991   5.012   4.197
 6261WAT     H219186   5.859   5.021   4.270
 6262WAT      O19187   7.337   6.103   3.995
 6262WAT     H119188   7.420   6.151   3.993
 6262WAT     H219189   7.363   6.011   3.993
 6263WAT      O19190   2.223   0.625   3.845
 6263WAT     H119191   2.283   0.667   3.784
 6263WAT     H219192   2.177   0.697   3.888
 6264WAT      O19193   5.924   0.383   4.074
 6264WAT     H119194   5.948   0.434   3.997
 6264WAT     H219195   5.977   0.418   4.144
 6265WAT      O19196   7.442   0.348   0.688
 6265WAT     H119197   7.478   0.432   0.716
 6265WAT     H219198   7.488   0.283   0.741
 6266WAT      O19199   4.254   4.117   2.992
 6266WAT     H119200   4.243   4.108   2.897
 6266WAT     H219201   4.265   4.027   3.024
 6267WAT      O19202   6.164   2.451   0.354
 6267WAT     H119203   6.121   2.519   0.302
 6267WAT     H219204   6.213   2.399   0.289
 6268WAT      O19205   4.097   2.346   2.282
 6268WAT     H119206   4.178   2.297   2.275
 6268WAT     H219207   4.124   2.433   2.311
 6269WAT      O19208   5.238   5.265   6.036
 6269WAT     H119209   5.235   5.291   5.944
 6269WAT     H219210   5.210   5.343   6.084
 6270WAT      O19211   1.501   5.217   3.603
 6270WAT     H119212   1.509   5.135   3.554
 6270WAT     H219213   1.551   5.203   3.683
 6271WAT      O19214   6.874   5.788   0.222
 6271WAT     H119215   6.868   5.718   0.288
 6271WAT     H219216   6.788   5.830   0.224
 6272WAT      O19217   0.893   0.327   1.986
 6272WAT     H119218   0.874   0.242   1.948
 6272WAT     H219219   0.913   0.309   2.078
 6273WAT      O19220   2.605   0.024   4.161
 6273WAT     H119221   2.556  -0.011   4.236
 6273WAT     H219222   2.556   0.101   4.134
 6274WAT      O19223   1.674   4.386   3.180
 6274WAT     H119224   1.739   4.322   3.208
 6274WAT     H219225   1.709   4.422   3.098
 6275WAT      O19226   1.028   0.062   3.827
 6275WAT     H119227   1.030  -0.033   3.843
 6275WAT     H219228   1.104   0.096   3.874
 6276WAT      O19229   0.708   6.332   0.324
 6276WAT     H119230   0.683   6.263   0.385
 6276WAT     H219231   0.784   6.297   0.278
 6277WAT      O19232   1.572   5.999   1.812
 6277WAT     H119233   1.609   6.045   1.888
 6277WAT     H219234   1.555   5.910   1.843
 6278WAT      O19235   5.623   4.417   0.593
 6278WAT     H119236   5.712   4.436   0.624
 6278WAT     H219237   5.636   4.380   0.505
 6279WAT      O19238   3.083   6.111   1.295
 6279WAT     H119239   3.058   6.096   1.204
 6279WAT     H219240   3.024   6.054   1.345
 6280WAT      O19241   6.153   0.754   5.276
 6280WAT     H119242   6.169   0.720   5.364
 6280WAT     H219243   6.207   0.698   5.219
 6281WAT      O19244   2.827   2.310   4.655
 6281WAT     H119245   2.804   2.333   4.745
 6281WAT     H219246   2.793   2.382   4.602
 6282WAT      O19247   3.552   1.667   2.240
 6282WAT     H119248   3.524   1.628   2.157
 6282WAT     H219249   3.566   1.759   2.219
 6283WAT      O19250   7.148   1.807   3.092
 6283WAT     H119251   7.119   1.865   3.022
 6283WAT     H219252   7.179   1.866   3.161
 6284WAT      O19253   4.222   0.144   5.888
 6284WAT     H119254   4.202   0.225   5.935
 6284WAT     H219255   4.137   0.104   5.871
 6285WAT      O19256   4.933   4.881   0.625
 6285WAT     H119257   4.851   4.846   0.660
 6285WAT     H219258   4.906   4.945   0.559
 6286WAT      O19259   0.220   3.591   4.316
 6286WAT     H119260   0.168   3.535   4.259
 6286WAT     H219261   0.178   3.677   4.311
 6287WAT      O19262   5.729   4.830   0.799
 6287WAT     H119263   5.689   4.784   0.726
 6287WAT     H219264   5.821   4.803   0.797
 6288WAT      O19265   0.750   0.017   1.345
 6288WAT     H119266   0.669  -0.020   1.310
 6288WAT     H219267   0.811   0.018   1.270
 6289WAT      O19268   5.527   2.032   2.180
 6289WAT     H119269   5.571   2.107   2.140
 6289WAT     H219270   5.442   2.066   2.208
 6290WAT      O19271   2.276   1.802   2.781
 6290WAT     H119272   2.324   1.879   2.750
 6290WAT     H219273   2.205   1.791   2.717
 6291WAT      O19274   0.912   4.775   2.661
 6291WAT     H119275   0.911   4.830   2.582
 6291WAT     H219276   1.003   4.746   2.669
 6292WAT      O19277   4.766   3.312   1.086
 6292WAT     H119278   4.781   3.389   1.141
 6292WAT     H219279   4.697   3.339   1.026
 6293WAT      O19280   6.967   3.530   2.658
 6293WAT     H119281   7.025   3.572   2.722
 6293WAT     H219282   6.890   3.587   2.656
 6294WAT      O19283   0.139   1.400   4.949
 6294WAT     H119284   0.094   1.411   4.865
 6294WAT     H219285   0.099   1.466   5.006
 6295WAT      O19286   6.704   3.348   0.890
 6295WAT     H119287   6.639   3.417   0.874
 6295WAT     H219288   6.749   3.339   0.806
 6296WAT      O19289   2.883   0.680   1.332
 6296WAT     H119290   2.932   0.678   1.250
 6296WAT     H219291   2.842   0.767   1.334
 6297WAT      O19292   0.266   4.045   4.827
 6297WAT     H119293   0.201   4.074   4.763
 6297WAT     H219294   0.321   4.123   4.841
 6298WAT      O19295   1.017   2.229   2.862
 6298WAT     H119296   1.072   2.210   2.938
 6298WAT     H219297   1.076   2.219   2.787
 6299WAT      O19298   4.551   1.293   5.160
 6299WAT     H119299   4.599   1.366   5.121
 6299WAT     H219300   4.615   1.221   5.163
 6300WAT      O19301   5.192   5.043   0.450
 6300WAT     H119302   5.239   4.974   0.497
 6300WAT     H219303   5.115   5.061   0.505
 6301WAT      O19304   5.374   4.661   5.554
 6301WAT     H119305   5.439   4.725   5.525
 6301WAT     H219306   5.371   4.595   5.484
 6302WAT      O19307   6.515   3.055   2.877
 6302WAT     H119308   6.551   3.019   2.796
 6302WAT     H219309   6.503   2.979   2.934
 6303WAT      O19310   0.303   6.376   5.523
 6303WAT     H119311   0.330   6.386   5.432
 6303WAT     H219312   0.235   6.309   5.521
 6304WAT      O19313   0.357   0.999   2.210
 6304WAT     H119314   0.398   1.046   2.137
 6304WAT     H219315   0.425   0.939   2.241
 6305WAT      O19316   6.870   0.561   4.598
 6305WAT     H119317   6.824   0.522   4.672
 6305WAT     H219318   6.919   0.635   4.636
 6306WAT      O19319   5.347   3.182   6.099
 6306WAT     H119320   5.387   3.237   6.032
 6306WAT     H219321   5.271   3.142   6.057
 6307WAT      O19322   0.573   7.188   3.214
 6307WAT     H119323   0.606   7.277   3.203
 6307WAT     H219324   0.629   7.134   3.159
 6308WAT      O19325   3.638   2.373   3.150
 6308WAT     H119326   3.717   2.327   3.124
 6308WAT     H219327   3.569   2.337   3.094
 6309WAT      O19328   6.033   5.487   0.603
 6309WAT     H119329   5.983   5.525   0.530
 6309WAT     H219330   6.125   5.499   0.577
 6310WAT      O19331   0.579   2.446   4.386
 6310WAT     H119332   0.668   2.456   4.420
 6310WAT     H219333   0.590   2.443   4.291
 6311WAT      O19334   4.369   6.913   0.752
 6311WAT     H119335   4.355   7.000   0.789
 6311WAT     H219336   4.445   6.879   0.798
 6312WAT      O19337   1.736   4.591   2.124
 6312WAT     H119338   1.667   4.622   2.064
 6312WAT     H219339   1.817   4.601   2.074
 6313WAT      O19340   0.142   0.662   3.036
 6313WAT     H119341   0.129   0.622   2.950
 6313WAT     H219342   0.101   0.748   3.030
 6314WAT      O19343   0.191   0.915   5.089
 6314WAT     H119344   0.138   0.992   5.067
 6314WAT     H219345   0.136   0.864   5.148
 6315WAT      O19346   1.369   5.958   0.067
 6315WAT     H119347   1.375   6.023   0.137
 6315WAT     H219348   1.373   6.010  -0.014
 6316WAT      O19349   1.395   3.651   3.473
 6316WAT     H119350   1.325   3.585   3.470
 6316WAT     H219351   1.467   3.612   3.423
 6317WAT      O19352   4.729   7.136   5.033
 6317WAT     H119353   4.683   7.202   4.981
 6317WAT     H219354   4.812   7.124   4.988
 6318WAT      O19355   1.314   4.368   0.153
 6318WAT     H119356   1.408   4.359   0.169
 6318WAT     H219357   1.305   4.361   0.058
 6319WAT      O19358   4.982   0.604   3.386
 6319WAT     H119359   4.963   0.538   3.452
 6319WAT     H219360   4.911   0.594   3.321
 6320WAT      O19361   2.827   1.400   4.892
 6320WAT     H119362   2.757   1.464   4.903
 6320WAT     H219363   2.890   1.443   4.835
 6321WAT      O19364   4.048   6.275   1.953
 6321WAT     H119365   4.069   6.184   1.975
 6321WAT     H219366   3.994   6.269   1.875
 6322WAT      O19367   5.447   1.260   4.337
 6322WAT     H119368   5.505   1.272   4.412
 6322WAT     H219369   5.438   1.165   4.328
 6323WAT      O19370   7.189   4.728   1.869
 6323WAT     H119371   7.226   4.664   1.808
 6323WAT     H219372   7.130   4.780   1.816
 6324WAT      O19373   4.351   0.491   6.030
 6324WAT     H119374   4.435   0.473   5.987
 6324WAT     H219375   4.307   0.553   5.971
 6325WAT      O19376   7.279   6.322   4.695
 6325WAT     H119377   7.268   6.417   4.690
 6325WAT     H219378   7.205   6.287   4.645
 6326WAT      O19379   7.217   1.512   5.443
 6326WAT     H119380   7.203   1.424   5.478
 6326WAT     H219381   7.289   1.503   5.382
 6327WAT      O19382   2.007   4.771   3.759
 6327WAT     H119383   2.028   4.678   3.758
 6327WAT     H219384   1.933   4.780   3.699
 6328WAT      O19385   6.363   2.314   0.805
 6328WAT     H119386   6.274   2.317   0.840
 6328WAT     H219387   6.352   2.332   0.711
 6329WAT      O19388   6.244   1.755   2.153
 6329WAT     H119389   6.317   1.721   2.101
 6329WAT     H219390   6.281   1.830   2.200
 6330WAT      O19391   5.912   0.086   2.960
 6330WAT     H119392   5.848   0.060   2.893
 6330WAT     H219393   5.881   0.172   2.990
 6331WAT      O19394   2.295   1.571   4.906
 6331WAT     H119395   2.247   1.496   4.941
 6331WAT     H219396   2.279   1.641   4.971
 6332WAT      O19397   5.560   3.537   5.603
 6332WAT     H119398   5.625   3.548   5.534
 6332WAT     H219399   5.479   3.519   5.556
 6333WAT      O19400   0.139   4.424   4.951
 6333WAT     H119401   0.175   4.428   4.862
 6333WAT     H219402   0.045   4.437   4.939
 6334WAT      O19403   4.672   1.452   1.073
 6334WAT     H119404   4.590   1.419   1.035
 6334WAT     H219405   4.706   1.513   1.008
 6335WAT      O19406   7.399   5.925   4.655
 6335WAT     H119407   7.423   6.015   4.629
 6335WAT     H219408   7.304   5.927   4.661
 6336WAT      O19409   1.008   1.961   4.548
 6336WAT     H119410   1.046   2.020   4.482
 6336WAT     H219411   1.024   2.005   4.631
 6337WAT      O19412   0.158   0.724   4.380
 6337WAT     H119413   0.184   0.633   4.391
 6337WAT     H219414   0.095   0.741   4.449
 6338WAT      O19415   0.099   2.866   2.526
 6338WAT     H119416   0.131   2.907   2.606
 6338WAT     H219417   0.007   2.844   2.546
 6339WAT      O19418   1.049   3.106   1.981
 6339WAT     H119419   0.995   3.042   1.934
 6339WAT     H219420   1.139   3.075   1.969
 6340WAT      O19421   5.956   5.838   2.832
 6340WAT     H119422   5.953   5.913   2.773
 6340WAT     H219423   6.002   5.871   2.910
 6341WAT      O19424   3.308   0.121   1.133
 6341WAT     H119425   3.370   0.142   1.063
 6341WAT     H219426   3.362   0.080   1.201
 6342WAT      O19427   5.374   7.117   3.893
 6342WAT     H119428   5.387   7.212   3.901
 6342WAT     H219429   5.280   7.106   3.881
 6343WAT      O19430   6.274   0.593   3.118
 6343WAT     H119431   6.298   0.503   3.139
 6343WAT     H219432   6.249   0.590   3.026
 6344WAT      O19433   1.029   2.847   0.735
 6344WAT     H119434   0.982   2.812   0.660
 6344WAT     H219435   1.035   2.941   0.718
 6345WAT      O19436   2.539   1.921   4.265
 6345WAT     H119437   2.458   1.968   4.287
 6345WAT     H219438   2.509   1.840   4.224
 6346WAT      O19439   3.294   5.026   0.087
 6346WAT     H119440   3.311   4.952   0.028
 6346WAT     H219441   3.360   5.091   0.064
 6347WAT      O19442   3.622   3.056   5.505
 6347WAT     H119443   3.528   3.067   5.519
 6347WAT     H219444   3.629   3.007   5.424
 6348WAT      O19445   4.445   1.267   4.240
 6348WAT     H119446   4.356   1.260   4.206
 6348WAT     H219447   4.501   1.252   4.163
 6349WAT      O19448   7.493   0.977   5.266
 6349WAT     H119449   7.516   1.069   5.253
 6349WAT     H219450   7.456   0.948   5.182
 6350WAT      O19451   5.792   6.844   3.854
 6350WAT     H119452   5.739   6.770   3.823
 6350WAT     H219453   5.732   6.894   3.910
 6351WAT      O19454   0.210   5.456   3.666
 6351WAT     H119455   0.263   5.376   3.672
 6351WAT     H219456   0.134   5.439   3.722
 6352WAT      O19457   3.028   1.543   2.075
 6352WAT     H119458   3.095   1.611   2.080
 6352WAT     H219459   2.945   1.591   2.078
 6353WAT      O19460   2.149   4.003   2.633
 6353WAT     H119461   2.220   3.986   2.695
 6353WAT     H219462   2.178   4.078   2.582
 6354WAT      O19463   5.771   2.783   0.001
 6354WAT     H119464   5.832   2.710   0.004
 6354WAT     H219465   5.824   2.859   0.026
 6355WAT      O19466   1.512   3.811   1.193
 6355WAT     H119467   1.583   3.754   1.224
 6355WAT     H219468   1.446   3.807   1.263
 6356WAT      O19469   3.681   0.216   3.490
 6356WAT     H119470   3.619   0.152   3.456
 6356WAT     H219471   3.754   0.214   3.428
 6357WAT      O19472   0.320   5.220   4.143
 6357WAT     H119473   0.371   5.262   4.075
 6357WAT     H219474   0.230   5.218   4.108
 6358WAT      O19475   7.296   6.539   1.547
 6358WAT     H119476   7.334   6.480   1.613
 6358WAT     H219477   7.281   6.483   1.471
 6359WAT      O19478   4.477   0.719   0.753
 6359WAT     H119479   4.471   0.786   0.685
 6359WAT     H219480   4.400   0.665   0.740
 6360WAT      O19481   3.282   1.351   0.306
 6360WAT     H119482   3.250   1.441   0.304
 6360WAT     H219483   3.296   1.333   0.399
 6361WAT      O19484   5.729   1.358   0.908
 6361WAT     H119485   5.647   1.310   0.899
 6361WAT     H219486   5.756   1.378   0.818
 6362WAT      O19487   0.277   3.111   4.499
 6362WAT     H119488   0.326   3.046   4.448
 6362WAT     H219489   0.189   3.074   4.507
 6363WAT      O19490   2.126   0.501   1.596
 6363WAT     H119491   2.051   0.479   1.541
 6363WAT     H219492   2.180   0.558   1.541
 6364WAT      O19493   3.779   1.868   3.843
 6364WAT     H119494   3.792   1.893   3.752
 6364WAT     H219495   3.731   1.786   3.839
 6365WAT      O19496   7.238   3.484   4.943
 6365WAT     H119497   7.154   3.528   4.950
 6365WAT     H219498   7.243   3.455   4.852
 6366WAT      O19499   5.902   6.074   2.708
 6366WAT     H119500   5.955   6.123   2.770
 6366WAT     H219501   5.835   6.135   2.679
 6367WAT      O19502   4.982   4.266   3.899
 6367WAT     H119503   5.024   4.185   3.927
 6367WAT     H219504   5.053   4.316   3.857
 6368WAT      O19505   6.873   1.167   0.321
 6368WAT     H119506   6.911   1.251   0.294
 6368WAT     H219507   6.907   1.153   0.409
 6369WAT      O19508   6.968   4.202   0.550
 6369WAT     H119509   7.046   4.236   0.505
 6369WAT     H219510   6.934   4.277   0.598
 6370WAT      O19511   4.751   3.059   2.115
 6370WAT     H119512   4.778   3.065   2.023
 6370WAT     H219513   4.665   3.101   2.117
 6371WAT      O19514   2.783   6.664   5.406
 6371WAT     H119515   2.870   6.693   5.378
 6371WAT     H219516   2.724   6.694   5.338
 6372WAT      O19517   5.245   2.811   1.575
 6372WAT     H119518   5.184   2.819   1.501
 6372WAT     H219519   5.332   2.817   1.534
 6373WAT      O19520   4.021   1.250   1.769
 6373WAT     H119521   4.066   1.211   1.694
 6373WAT     H219522   3.971   1.323   1.731
 6374WAT      O19523   7.276   4.894   2.621
 6374WAT     H119524   7.307   4.831   2.556
 6374WAT     H219525   7.353   4.912   2.675
 6375WAT      O19526   0.033   4.866   2.973
 6375WAT     H119527   0.119   4.842   3.008
 6375WAT     H219528   0.015   4.800   2.906
 6376WAT      O19529   6.259   6.107   5.591
 6376WAT     H119530   6.233   6.118   5.683
 6376WAT     H219531   6.201   6.165   5.543
 6377WAT      O19532   5.332   4.693   2.404
 6377WAT     H119533   5.311   4.602   2.383
 6377WAT     H219534   5.279   4.711   2.482
 6378WAT      O19535   6.941   0.642   2.471
 6378WAT     H119536   6.908   0.556   2.445
 6378WAT     H219537   6.996   0.669   2.398
 6379WAT      O19538   1.544   5.105   4.955
 6379WAT     H119539   1.492   5.032   4.923
 6379WAT     H219540   1.588   5.072   5.033
 6380WAT      O19541   6.919   6.472   5.623
 6380WAT     H119542   6.861   6.547   5.636
 6380WAT     H219543   6.875   6.400   5.669
 6381WAT      O19544   4.884   2.719   5.012
 6381WAT     H119545   4.864   2.717   4.919
 6381WAT     H219546   4.826   2.786   5.048
 6382WAT      O19547   0.229   2.188   0.394
 6382WAT     H119548   0.177   2.259   0.357
 6382WAT     H219549   0.223   2.202   0.489
 6383WAT      O19550   0.589   1.942   5.381
 6383WAT     H119551   0.526   1.875   5.407
 6383WAT     H219552   0.546   1.989   5.310
 6384WAT      O19553   3.023   1.296   5.646
 6384WAT     H119554   3.068   1.330   5.569
 6384WAT     H219555   2.941   1.345   5.650
 6385WAT      O19556   0.752   4.941   4.338
 6385WAT     H119557   0.778   4.850   4.353
 6385WAT     H219558   0.750   4.951   4.243
 6386WAT      O19559   0.869   5.103   4.518
 6386WAT     H119560   0.809   5.177   4.510
 6386WAT     H219561   0.832   5.036   4.459
 6387WAT      O19562   2.629   3.599   0.930
 6387WAT     H119563   2.690   3.653   0.881
 6387WAT     H219564   2.557   3.583   0.869
 6388WAT      O19565   6.225   6.160   3.167
 6388WAT     H119566   6.153   6.114   3.123
 6388WAT     H219567   6.181   6.219   3.228
 6389WAT      O19568   4.976   4.792   3.547
 6389WAT     H119569   4.916   4.865   3.565
 6389WAT     H219570   4.991   4.796   3.453
 6390WAT      O19571   4.262   0.002   1.271
 6390WAT     H119572   4.335   0.050   1.232
 6390WAT     H219573   4.206  -0.021   1.196
 6391WAT      O19574   4.212   6.270   0.073
 6391WAT     H119575   4.121   6.243   0.082
 6391WAT     H219576   4.255   6.196   0.030
 6392WAT      O19577   5.065   1.959   2.400
 6392WAT     H119578   5.059   1.866   2.421
 6392WAT     H219579   4.975   1.991   2.405
 6393WAT      O19580   6.347   3.955   5.147
 6393WAT     H119581   6.274   3.962   5.085
 6393WAT     H219582   6.409   4.021   5.119
 6394WAT      O19583   7.215   6.317   2.711
 6394WAT     H119584   7.222   6.327   2.806
 6394WAT     H219585   7.135   6.265   2.699
 6395WAT      O19586   6.875   4.169   1.921
 6395WAT     H119587   6.788   4.163   1.961
 6395WAT     H219588   6.888   4.084   1.878
 6396WAT      O19589   2.738   1.629   4.231
 6396WAT     H119590   2.827   1.657   4.250
 6396WAT     H219591   2.696   1.625   4.317
 6397WAT      O19592   5.355   6.349   5.457
 6397WAT     H119593   5.368   6.290   5.531
 6397WAT     H219594   5.413   6.316   5.388
 6398WAT      O19595   0.080   6.748   3.389
 6398WAT     H119596  -0.012   6.762   3.371
 6398WAT     H219597   0.116   6.835   3.401
 6399WAT      O19598   0.625   5.304   0.606
 6399WAT     H119599   0.674   5.294   0.688
 6399WAT     H219600   0.577   5.386   0.617
 6400WAT      O19601   2.296   1.203   0.554
 6400WAT     H119602   2.245   1.271   0.598
 6400WAT     H219603   2.363   1.251   0.506
 6401WAT      O19604   0.987   5.856   5.349
 6401WAT     H119605   1.074   5.821   5.330
 6401WAT     H219606   0.962   5.905   5.271
 6402WAT      O19607   7.263   3.271   3.554
 6402WAT     H119608   7.269   3.355   3.508
 6402WAT     H219609   7.354   3.247   3.572
 6403WAT      O19610   3.454   5.764   5.171
 6403WAT     H119611   3.398   5.832   5.133
 6403WAT     H219612   3.417   5.682   5.139
 6404WAT      O19613   4.792   6.065   0.656
 6404WAT     H119614   4.832   6.058   0.569
 6404WAT     H219615   4.826   6.147   0.692
 6405WAT      O19616   5.201   4.993   1.031
 6405WAT     H119617   5.154   4.916   1.063
 6405WAT     H219618   5.282   4.958   0.993
 6406WAT      O19619   2.258   3.003   3.963
 6406WAT     H119620   2.289   3.093   3.959
 6406WAT     H219621   2.300   2.960   3.888
 6407WAT      O19622   5.553   5.858   0.639
 6407WAT     H119623   5.543   5.906   0.720
 6407WAT     H219624   5.641   5.881   0.608
 6408WAT      O19625   6.411   6.338   2.436
 6408WAT     H119626   6.447   6.426   2.448
 6408WAT     H219627   6.465   6.298   2.368
 6409WAT      O19628   4.350   5.494   3.691
 6409WAT     H119629   4.337   5.412   3.643
 6409WAT     H219630   4.340   5.563   3.625
 6410WAT      O19631   3.398   4.342   1.813
 6410WAT     H119632   3.456   4.286   1.865
 6410WAT     H219633   3.316   4.293   1.809
 6411WAT      O19634   5.016   0.607   0.528
 6411WAT     H119635   5.029   0.512   0.531
 6411WAT     H219636   5.071   0.637   0.456
 6412WAT      O19637   1.733   3.298   4.393
 6412WAT     H119638   1.674   3.231   4.426
 6412WAT     H219639   1.781   3.255   4.322
 6413WAT      O19640   2.175   5.143   4.858
 6413WAT     H119641   2.204   5.084   4.789
 6413WAT     H219642   2.244   5.209   4.864
 6414WAT      O19643   2.647   5.822   5.877
 6414WAT     H119644   2.649   5.769   5.797
 6414WAT     H219645   2.738   5.847   5.892
 6415WAT      O19646   3.878   6.277   4.588
 6415WAT     H119647   3.938   6.204   4.572
 6415WAT     H219648   3.838   6.294   4.503
 6416WAT      O19649   6.078   6.277   5.468
 6416WAT     H119650   6.076   6.321   5.382
 6416WAT     H219651   5.991   6.240   5.478
 6417WAT      O19652   4.105   4.350   2.829
 6417WAT     H119653   4.172   4.339   2.761
 6417WAT     H219654   4.091   4.444   2.834
 6418WAT      O19655   7.552   0.670   0.680
 6418WAT     H119656   7.617   0.682   0.610
 6418WAT     H219657   7.510   0.756   0.688
 6419WAT      O19658   1.580   3.181   2.764
 6419WAT     H119659   1.553   3.165   2.674
 6419WAT     H219660   1.675   3.193   2.760
 6420WAT      O19661   6.096   0.127   1.914
 6420WAT     H119662   6.135   0.072   1.846
 6420WAT     H219663   6.009   0.148   1.881
 6421WAT      O19664   6.017   4.834   0.743
 6421WAT     H119665   6.039   4.924   0.720
 6421WAT     H219666   6.037   4.784   0.664
 6422WAT      O19667   1.743   6.564   2.335
 6422WAT     H119668   1.685   6.636   2.358
 6422WAT     H219669   1.684   6.493   2.310
 6423WAT      O19670   4.353   2.464   5.355
 6423WAT     H119671   4.413   2.396   5.387
 6423WAT     H219672   4.294   2.418   5.296
 6424WAT      O19673   1.565   6.518   2.948
 6424WAT     H119674   1.480   6.533   2.907
 6424WAT     H219675   1.574   6.587   3.013
 6425WAT      O19676   4.911   1.413   3.358
 6425WAT     H119677   4.927   1.507   3.355
 6425WAT     H219678   4.859   1.395   3.279
 6426WAT      O19679   6.316   5.050   5.922
 6426WAT     H119680   6.247   4.997   5.883
 6426WAT     H219681   6.275   5.135   5.938
 6427WAT      O19682   7.510   3.020   0.402
 6427WAT     H119683   7.476   3.081   0.337
 6427WAT     H219684   7.555   2.953   0.350
 6428WAT      O19685   5.256   1.672   5.223
 6428WAT     H119686   5.343   1.704   5.245
 6428WAT     H219687   5.197   1.728   5.273
 6429WAT      O19688   5.593   1.828   0.257
 6429WAT     H119689   5.618   1.736   0.267
 6429WAT     H219690   5.597   1.864   0.345
 6430WAT      O19691   6.546   2.289   2.832
 6430WAT     H119692   6.556   2.322   2.921
 6430WAT     H219693   6.477   2.223   2.838
 6431WAT      O19694   0.932   5.818   0.935
 6431WAT     H119695   0.860   5.870   0.970
 6431WAT     H219696   0.974   5.876   0.872
 6432WAT      O19697   0.061   6.391   3.914
 6432WAT     H119698   0.072   6.473   3.963
 6432WAT     H219699   0.142   6.382   3.864
 6433WAT      O19700   5.220   1.995   1.085
 6433WAT     H119701   5.280   2.068   1.067
 6433WAT     H219702   5.276   1.917   1.081
 6434WAT      O19703   4.265   2.513   5.739
 6434WAT     H119704   4.319   2.586   5.708
 6434WAT     H219705   4.183   2.553   5.766
 6435WAT      O19706   4.169   4.791   4.224
 6435WAT     H119707   4.214   4.846   4.159
 6435WAT     H219708   4.093   4.756   4.176
 6436WAT      O19709   4.924   3.829   3.254
 6436WAT     H119710   4.902   3.801   3.165
 6436WAT     H219711   4.963   3.916   3.243
 6437WAT      O19712   1.122   5.293   2.904
 6437WAT     H119713   1.103   5.259   2.817
 6437WAT     H219714   1.063   5.244   2.962
 6438WAT      O19715   2.318   2.601   0.281
 6438WAT     H119716   2.276   2.675   0.238
 6438WAT     H219717   2.358   2.552   0.209
 6439WAT      O19718   7.326   1.435   1.426
 6439WAT     H119719   7.412   1.477   1.417
 6439WAT     H219720   7.343   1.361   1.484
 6440WAT      O19721   2.450   2.433   2.959
 6440WAT     H119722   2.467   2.355   2.906
 6440WAT     H219723   2.485   2.505   2.908
 6441WAT      O19724   1.322   5.508   6.111
 6441WAT     H119725   1.374   5.471   6.040
 6441WAT     H219726   1.315   5.601   6.090
 6442WAT      O19727   2.485   4.335   0.515
 6442WAT     H119728   2.467   4.245   0.542
 6442WAT     H219729   2.566   4.329   0.465
 6443WAT      O19730   3.045   4.141   0.574
 6443WAT     H119731   3.100   4.142   0.496
 6443WAT     H219732   3.106   4.154   0.647
 6444WAT      O19733   4.681   1.250   4.685
 6444WAT     H119734   4.757   1.302   4.711
 6444WAT     H219735   4.655   1.287   4.601
 6445WAT      O19736   0.941   1.233   6.076
 6445WAT     H119737   0.869   1.180   6.112
 6445WAT     H219738   1.019   1.199   6.119
 6446WAT      O19739   0.099   2.379   2.641
 6446WAT     H119740   0.109   2.444   2.571
 6446WAT     H219741   0.046   2.423   2.708
 6447WAT      O19742   7.107   0.357   1.308
 6447WAT     H119743   7.174   0.388   1.247
 6447WAT     H219744   7.033   0.417   1.294
 6448WAT      O19745   3.583   4.130   2.093
 6448WAT     H119746   3.561   4.204   2.149
 6448WAT     H219747   3.602   4.058   2.154
 6449WAT      O19748   5.076   2.562   3.065
 6449WAT     H119749   5.108   2.486   3.017
 6449WAT     H219750   5.010   2.601   3.009
 6450WAT      O19751   1.067   2.792   1.336
 6450WAT     H119752   1.161   2.795   1.354
 6450WAT     H219753   1.054   2.852   1.263
 6451WAT      O19754   4.089   4.957   3.163
 6451WAT     H119755   4.042   4.886   3.208
 6451WAT     H219756   4.032   4.982   3.091
 6452WAT      O19757   7.509   6.890   5.868
 6452WAT     H119758   7.570   6.960   5.891
 6452WAT     H219759   7.547   6.850   5.790
 6453WAT      O19760   1.275   3.603   2.099
 6453WAT     H119761   1.336   3.530   2.084
 6453WAT     H219762   1.306   3.672   2.040
 6454WAT      O19763   4.892   2.171   2.684
 6454WAT     H119764   4.845   2.091   2.659
 6454WAT     H219765   4.955   2.184   2.614
 6455WAT      O19766   7.179   0.573   2.624
 6455WAT     H119767   7.258   0.563   2.570
 6455WAT     H219768   7.118   0.622   2.568
 6456WAT      O19769   5.529   4.048   4.057
 6456WAT     H119770   5.483   3.997   3.990
 6456WAT     H219771   5.619   4.016   4.054
 6457WAT      O19772   5.324   1.811   3.277
 6457WAT     H119773   5.408   1.857   3.282
 6457WAT     H219774   5.343   1.722   3.307
 6458WAT      O19775   0.999   3.105   2.771
 6458WAT     H119776   1.045   3.094   2.688
 6458WAT     H219777   1.056   3.162   2.823
 6459WAT      O19778   4.340   4.849   4.433
 6459WAT     H119779   4.336   4.927   4.489
 6459WAT     H219780   4.265   4.858   4.374
 6460WAT      O19781   3.572   0.313   0.336
 6460WAT     H119782   3.568   0.338   0.244
 6460WAT     H219783   3.585   0.396   0.383
 6461WAT      O19784   5.096   3.010   4.096
 6461WAT     H119785   5.124   2.919   4.105
 6461WAT     H219786   5.125   3.035   4.008
 6462WAT      O19787   1.731   3.610   4.620
 6462WAT     H119788   1.754   3.648   4.705
 6462WAT     H219789   1.809   3.624   4.566
 6463WAT      O19790   2.035   6.842   4.966
 6463WAT     H119791   2.046   6.756   4.925
 6463WAT     H219792   2.123   6.864   4.998
 6464WAT      O19793   0.859   3.949   0.845
 6464WAT     H119794   0.769   3.982   0.846
 6464WAT     H219795   0.885   3.954   0.753
 6465WAT      O19796   1.909   5.866   0.230
 6465WAT     H119797   1.985   5.922   0.247
 6465WAT     H219798   1.834   5.917   0.260
 6466WAT      O19799   5.880   4.304   5.503
 6466WAT     H119800   5.851   4.258   5.582
 6466WAT     H219801   5.852   4.247   5.432
 6467WAT      O19802   4.983   1.596   2.946
 6467WAT     H119803   5.026   1.607   2.861
 6467WAT     H219804   4.892   1.575   2.924
 6468WAT      O19805   2.976   6.990   3.150
 6468WAT     H119806   3.071   6.984   3.157
 6468WAT     H219807   2.958   6.986   3.056
 6469WAT      O19808   5.946   5.101   1.957
 6469WAT     H119809   5.965   5.186   1.917
 6469WAT     H219810   6.029   5.074   1.996
 6470WAT      O19811   5.759   1.430   0.639
 6470WAT     H119812   5.707   1.359   0.603
 6470WAT     H219813   5.800   1.471   0.563
 6471WAT      O19814   0.795   7.125   3.455
 6471WAT     H119815   0.728   7.173   3.407
 6471WAT     H219816   0.804   7.173   3.538
 6472WAT      O19817   2.201   2.331   0.457
 6472WAT     H119818   2.264   2.397   0.429
 6472WAT     H219819   2.191   2.344   0.551
 6473WAT      O19820   3.722   5.520   4.933
 6473WAT     H119821   3.747   5.524   4.841
 6473WAT     H219822   3.754   5.602   4.971
 6474WAT      O19823   3.987   5.267   6.143
 6474WAT     H119824   3.971   5.353   6.105
 6474WAT     H219825   4.082   5.260   6.147
 6475WAT      O19826   3.770   5.006   3.964
 6475WAT     H119827   3.835   4.969   3.904
 6475WAT     H219828   3.814   5.081   4.005
 6476WAT      O19829   4.717   0.312   0.979
 6476WAT     H119830   4.762   0.240   0.936
 6476WAT     H219831   4.675   0.361   0.908
 6477WAT      O19832   5.995   2.267   1.694
 6477WAT     H119833   6.046   2.243   1.771
 6477WAT     H219834   6.061   2.279   1.625
 6478WAT      O19835   3.865   2.227   3.826
 6478WAT     H119836   3.935   2.255   3.766
 6478WAT     H219837   3.798   2.189   3.769
 6479WAT      O19838   0.372   5.757   4.466
 6479WAT     H119839   0.335   5.798   4.545
 6479WAT     H219840   0.354   5.664   4.476
 6480WAT      O19841   4.661   6.497   2.772
 6480WAT     H119842   4.619   6.417   2.804
 6480WAT     H219843   4.710   6.469   2.695
 6481WAT      O19844   2.843   1.135   4.959
 6481WAT     H119845   2.826   1.227   4.939
 6481WAT     H219846   2.767   1.089   4.924
 6482WAT      O19847   6.461   4.479   1.544
 6482WAT     H119848   6.417   4.535   1.480
 6482WAT     H219849   6.433   4.390   1.521
 6483WAT      O19850   5.261   3.919   4.946
 6483WAT     H119851   5.297   4.007   4.955
 6483WAT     H219852   5.337   3.862   4.949
 6484WAT      O19853   4.521   5.050   2.872
 6484WAT     H119854   4.448   4.989   2.866
 6484WAT     H219855   4.527   5.090   2.786
 6485WAT      O19856   2.732   6.136   4.208
 6485WAT     H119857   2.779   6.053   4.215
 6485WAT     H219858   2.663   6.118   4.143
 6486WAT      O19859   1.913   3.940   1.276
 6486WAT     H119860   1.857   4.016   1.263
 6486WAT     H219861   1.852   3.866   1.282
 6487WAT      O19862   4.140   0.272   3.192
 6487WAT     H119863   4.097   0.256   3.276
 6487WAT     H219864   4.140   0.367   3.182
 6488WAT      O19865   2.352   6.879   1.647
 6488WAT     H119866   2.442   6.873   1.615
 6488WAT     H219867   2.320   6.963   1.613
 6489WAT      O19868   4.632   6.354   3.815
 6489WAT     H119869   4.726   6.344   3.801
 6489WAT     H219870   4.593   6.282   3.765
 6490WAT      O19871   3.046   5.734   0.962
 6490WAT     H119872   3.008   5.740   1.050
 6490WAT     H219873   3.013   5.812   0.916
 6491WAT      O19874   3.608   3.652   4.555
 6491WAT     H119875   3.700   3.675   4.541
 6491WAT     H219876   3.603   3.635   4.649
 6492WAT      O19877   4.391   6.127   2.265
 6492WAT     H119878   4.364   6.218   2.255
 6492WAT     H219879   4.394   6.113   2.360
 6493WAT      O19880   5.234   6.644   1.275
 6493WAT     H119881   5.230   6.609   1.186
 6493WAT     H219882   5.291   6.721   1.268
 6494WAT      O19883   0.523   4.218   1.250
 6494WAT     H119884   0.567   4.296   1.284
 6494WAT     H219885   0.435   4.249   1.227
 6495WAT      O19886   4.707   0.250   4.100
 6495WAT     H119887   4.661   0.288   4.175
 6495WAT     H219888   4.639   0.228   4.037
 6496WAT      O19889   4.836   2.491   5.185
 6496WAT     H119890   4.831   2.499   5.090
 6496WAT     H219891   4.753   2.526   5.217
 6497WAT      O19892   3.058   2.991   2.069
 6497WAT     H119893   3.105   2.931   2.012
 6497WAT     H219894   3.121   3.014   2.137
 6498WAT      O19895   2.876   4.475   1.403
 6498WAT     H119896   2.872   4.556   1.351
 6498WAT     H219897   2.785   4.456   1.425
 6499WAT      O19898   3.666   5.487   5.218
 6499WAT     H119899   3.675   5.502   5.124
 6499WAT     H219900   3.587   5.433   5.226
 6500WAT      O19901   4.354   0.342   2.967
 6500WAT     H119902   4.266   0.346   2.929
 6500WAT     H219903   4.340   0.347   3.061
 6501WAT      O19904   2.563   3.611   4.096
 6501WAT     H119905   2.641   3.666   4.085
 6501WAT     H219906   2.543   3.580   4.008
 6502WAT      O19907   5.755   5.137   1.358
 6502WAT     H119908   5.829   5.174   1.310
 6502WAT     H219909   5.692   5.208   1.365
 6503WAT      O19910   2.057   6.807   4.083
 6503WAT     H119911   2.126   6.814   4.017
 6503WAT     H219912   2.001   6.735   4.052
 6504WAT      O19913   2.058   5.682   1.572
 6504WAT     H119914   2.109   5.614   1.528
 6504WAT     H219915   2.022   5.736   1.502
 6505WAT      O19916   3.654   3.368   1.701
 6505WAT     H119917   3.665   3.433   1.771
 6505WAT     H219918   3.569   3.389   1.662
 6506WAT      O19919   1.338   1.173   0.704
 6506WAT     H119920   1.252   1.216   0.709
 6506WAT     H219921   1.349   1.150   0.612
 6507WAT      O19922   7.206   2.135   4.967
 6507WAT     H119923   7.208   2.204   4.901
 6507WAT     H219924   7.290   2.091   4.958
 6508WAT      O19925   0.359   6.045   1.197
 6508WAT     H119926   0.385   6.083   1.281
 6508WAT     H219927   0.343   5.952   1.217
 6509WAT      O19928   7.032   6.383   0.994
 6509WAT     H119929   7.031   6.440   1.071
 6509WAT     H219930   7.031   6.443   0.920
 6510WAT      O19931   3.945   1.539   2.382
 6510WAT     H119932   3.930   1.444   2.388
 6510WAT     H219933   3.962   1.554   2.289
 6511WAT      O19934   2.746   2.527   1.901
 6511WAT     H119935   2.803   2.451   1.912
 6511WAT     H219936   2.794   2.599   1.942
 6512WAT      O19937   3.744   0.897   4.039
 6512WAT     H119938   3.805   0.875   3.969
 6512WAT     H219939   3.718   0.813   4.075
 6513WAT      O19940   5.924   2.521   4.410
 6513WAT     H119941   5.842   2.472   4.423
 6513WAT     H219942   5.895   2.610   4.387
 6514WAT      O19943   0.951   1.232   3.765
 6514WAT     H119944   0.898   1.153   3.775
 6514WAT     H219945   0.892   1.297   3.727
 6515WAT      O19946   3.888   1.723   1.852
 6515WAT     H119947   3.869   1.664   1.779
 6515WAT     H219948   3.827   1.796   1.841
 6516WAT      O19949   2.150   0.548   3.577
 6516WAT     H119950   2.072   0.493   3.581
 6516WAT     H219951   2.170   0.568   3.669
 6517WAT      O19952   3.175   0.087   2.366
 6517WAT     H119953   3.166   0.025   2.294
 6517WAT     H219954   3.093   0.137   2.365
 6518WAT      O19955   0.993   5.272   4.779
 6518WAT     H119956   0.959   5.197   4.731
 6518WAT     H219957   1.087   5.257   4.784
 6519WAT      O19958   7.288   1.891   4.733
 6519WAT     H119959   7.285   1.963   4.670
 6519WAT     H219960   7.220   1.830   4.703
 6520WAT      O19961   7.082   5.557   1.874
 6520WAT     H119962   7.109   5.569   1.965
 6520WAT     H219963   7.161   5.530   1.828
 6521WAT      O19964   5.530   1.726   2.219
 6521WAT     H119965   5.486   1.807   2.195
 6521WAT     H219966   5.460   1.665   2.240
 6522WAT      O19967   1.336   1.311   0.210
 6522WAT     H119968   1.356   1.218   0.208
 6522WAT     H219969   1.403   1.352   0.156
 6523WAT      O19970   0.018   1.758   4.392
 6523WAT     H119971  -0.025   1.843   4.400
 6523WAT     H219972  -0.046   1.702   4.350
 6524WAT      O19973   3.938   6.764   6.100
 6524WAT     H119974   4.000   6.820   6.054
 6524WAT     H219975   3.865   6.754   6.040
 6525WAT      O19976   2.321   3.638   5.201
 6525WAT     H119977   2.283   3.632   5.288
 6525WAT     H219978   2.298   3.557   5.158
 6526WAT      O19979   3.001   6.510   1.409
 6526WAT     H119980   2.958   6.590   1.435
 6526WAT     H219981   2.933   6.458   1.367
 6527WAT      O19982   3.406   4.864   0.294
 6527WAT     H119983   3.374   4.921   0.224
 6527WAT     H219984   3.329   4.812   0.319
 6528WAT      O19985   5.106   6.159   1.802
 6528WAT     H119986   5.118   6.206   1.719
 6528WAT     H219987   5.012   6.156   1.814
 6529WAT      O19988   5.663   2.990   2.411
 6529WAT     H119989   5.745   3.010   2.366
 6529WAT     H219990   5.618   2.929   2.352
 6530WAT      O19991   1.100   2.720   3.216
 6530WAT     H119992   1.122   2.668   3.293
 6530WAT     H219993   1.116   2.662   3.142
 6531WAT      O19994   4.302   1.337   1.238
 6531WAT     H119995   4.213   1.362   1.213
 6531WAT     H219996   4.356   1.412   1.210
 6532WAT      O19997   2.154   3.468   5.830
 6532WAT     H119998   2.134   3.514   5.749
 6532WAT     H219999   2.246   3.442   5.822
 6533WAT      O20000   0.267   7.022   4.662
 6533WAT     H120001   0.339   6.959   4.655
 6533WAT     H220002   0.208   6.999   4.591
 6534WAT      O20003   2.048   2.903   5.197
 6534WAT     H120004   2.055   2.859   5.112
 6534WAT     H220005   2.136   2.935   5.215
 6535WAT      O20006   1.464   2.096   5.845
 6535WAT     H120007   1.404   2.162   5.812
 6535WAT     H220008   1.480   2.038   5.770
 6536WAT      O20009   7.267   6.588   4.620
 6536WAT     H120010   7.345   6.612   4.669
 6536WAT     H220011   7.259   6.655   4.552
 6537WAT      O20012   3.517   1.597   1.967
 6537WAT     H120013   3.516   1.672   1.908
 6537WAT     H220014   3.436   1.549   1.947
 6538WAT      O20015   6.824   0.630   4.954
 6538WAT     H120016   6.907   0.583   4.946
 6538WAT     H220017   6.758   0.565   4.934
 6539WAT      O20018   7.583   2.697   1.579
 6539WAT     H120019   7.645   2.675   1.649
 6539WAT     H220020   7.500   2.659   1.608
 6540WAT      O20021   7.584   6.777   4.220
 6540WAT     H120022   7.608   6.696   4.176
 6540WAT     H220023   7.603   6.846   4.156
 6541WAT      O20024   6.141   6.430   0.353
 6541WAT     H120025   6.164   6.514   0.393
 6541WAT     H220026   6.057   6.406   0.392
 6542WAT      O20027   3.600   2.588   5.807
 6542WAT     H120028   3.579   2.613   5.717
 6542WAT     H220029   3.687   2.548   5.801
 6543WAT      O20030   0.747   1.279   2.347
 6543WAT     H120031   0.805   1.220   2.299
 6543WAT     H220032   0.694   1.321   2.280
 6544WAT      O20033   3.850   1.165   5.852
 6544WAT     H120034   3.793   1.150   5.928
 6544WAT     H220035   3.933   1.193   5.890
 6545WAT      O20036   7.442   4.253   2.930
 6545WAT     H120037   7.412   4.215   3.013
 6545WAT     H220038   7.459   4.345   2.952
 6546WAT      O20039   6.588   2.914   2.373
 6546WAT     H120040   6.654   2.852   2.344
 6546WAT     H220041   6.561   2.960   2.293
 6547WAT      O20042   1.846   4.711   0.317
 6547WAT     H120043   1.826   4.646   0.250
 6547WAT     H220044   1.806   4.792   0.286
 6548WAT      O20045   1.533   5.591   3.842
 6548WAT     H120046   1.438   5.580   3.833
 6548WAT     H220047   1.562   5.514   3.890
 6549WAT      O20048   2.827   2.474   5.818
 6549WAT     H120049   2.849   2.503   5.730
 6549WAT     H220050   2.869   2.388   5.826
 6550WAT      O20051   2.688   2.930   4.400
 6550WAT     H120052   2.730   2.882   4.471
 6550WAT     H220053   2.602   2.890   4.392
 6551WAT      O20054   3.175   1.111   2.724
 6551WAT     H120055   3.262   1.100   2.763
 6551WAT     H220056   3.185   1.186   2.666
 6552WAT      O20057   6.122   5.845   4.209
 6552WAT     H120058   6.125   5.760   4.165
 6552WAT     H220059   6.045   5.841   4.265
 6553WAT      O20060   4.444   6.533   3.934
 6553WAT     H120061   4.417   6.581   3.856
 6553WAT     H220062   4.513   6.474   3.904
 6554WAT      O20063   0.682   4.802   0.866
 6554WAT     H120064   0.773   4.830   0.858
 6554WAT     H220065   0.671   4.737   0.797
 6555WAT      O20066   4.595   5.701   4.638
 6555WAT     H120067   4.517   5.757   4.641
 6555WAT     H220068   4.608   5.683   4.545
 6556WAT      O20069   5.703   1.552   0.225
 6556WAT     H120070   5.784   1.590   0.260
 6556WAT     H220071   5.732   1.495   0.155
 6557WAT      O20072   4.441   1.062   3.057
 6557WAT     H120073   4.527   1.024   3.039
 6557WAT     H220074   4.459   1.154   3.078
 6558WAT      O20075   7.235   1.181   6.111
 6558WAT     H120076   7.180   1.142   6.178
 6558WAT     H220077   7.262   1.107   6.056
 6559WAT      O20078   6.506   1.366   3.600
 6559WAT     H120079   6.530   1.378   3.508
 6559WAT     H220080   6.589   1.348   3.644
 6560WAT      O20081   5.457   6.867   1.308
 6560WAT     H120082   5.546   6.840   1.285
 6560WAT     H220083   5.442   6.947   1.257
 6561WAT      O20084   1.481   2.152   0.058
 6561WAT     H120085   1.389   2.140   0.082
 6561WAT     H220086   1.479   2.213  -0.015
 6562WAT      O20087   6.173   2.420   5.755
 6562WAT     H120088   6.181   2.514   5.770
 6562WAT     H220089   6.248   2.382   5.802
 6563WAT      O20090   1.670   6.731   0.573
 6563WAT     H120091   1.631   6.750   0.487
 6563WAT     H220092   1.710   6.814   0.599
 6564WAT      O20093   4.669   1.972   3.468
 6564WAT     H120094   4.596   2.003   3.415
 6564WAT     H220095   4.745   1.982   3.411
 6565WAT      O20096   2.569   0.310   3.751
 6565WAT     H120097   2.662   0.334   3.742
 6565WAT     H220098   2.524   0.362   3.684
 6566WAT      O20099   7.442   0.905   2.466
 6566WAT     H120100   7.369   0.843   2.475
 6566WAT     H220101   7.416   0.980   2.520
 6567WAT      O20102   4.115   7.107   0.741
 6567WAT     H120103   4.049   7.132   0.676
 6567WAT     H220104   4.076   7.035   0.790
 6568WAT      O20105   7.399   6.840   3.788
 6568WAT     H120106   7.381   6.761   3.838
 6568WAT     H220107   7.396   6.813   3.697
 6569WAT      O20108   2.641   0.650   2.390
 6569WAT     H120109   2.652   0.595   2.468
 6569WAT     H220110   2.583   0.599   2.333
 6570WAT      O20111   1.705   4.624   4.240
 6570WAT     H120112   1.679   4.543   4.195
 6570WAT     H220113   1.681   4.609   4.332
 6571WAT      O20114   0.047   0.272   2.649
 6571WAT     H120115   0.035   0.214   2.574
 6571WAT     H220116   0.117   0.231   2.700
 6572WAT      O20117   3.620   1.154   6.026
 6572WAT     H120118   3.565   1.099   6.081
 6572WAT     H220119   3.572   1.161   5.943
 6573WAT      O20120   4.532   0.172   4.613
 6573WAT     H120121   4.609   0.189   4.668
 6573WAT     H220122   4.568   0.153   4.527
 6574WAT      O20123   7.078   3.037   3.519
 6574WAT     H120124   7.041   3.008   3.602
 6574WAT     H220125   7.154   3.089   3.543
 6575WAT      O20126   3.913   4.694   4.166
 6575WAT     H120127   3.835   4.742   4.194
 6575WAT     H220128   3.906   4.689   4.071
 6576WAT      O20129   3.521   4.267   4.801
 6576WAT     H120130   3.432   4.290   4.774
 6576WAT     H220131   3.552   4.208   4.732
 6577WAT      O20132   4.280   6.490   3.575
 6577WAT     H120133   4.245   6.417   3.626
 6577WAT     H220134   4.252   6.472   3.485
 6578WAT      O20135   0.995   1.206   1.187
 6578WAT     H120136   0.931   1.242   1.126
 6578WAT     H220137   0.992   1.265   1.262
 6579WAT      O20138   5.630   5.956   2.355
 6579WAT     H120139   5.563   6.016   2.387
 6579WAT     H220140   5.582   5.875   2.337
 6580WAT      O20141   0.505   6.969   4.046
 6580WAT     H120142   0.473   6.951   3.957
 6580WAT     H220143   0.430   6.949   4.103
 6581WAT      O20144   5.323   4.817   4.310
 6581WAT     H120145   5.381   4.889   4.285
 6581WAT     H220146   5.283   4.789   4.228
 6582WAT      O20147   5.734   2.950   2.919
 6582WAT     H120148   5.757   2.863   2.953
 6582WAT     H220149   5.695   2.933   2.833
 6583WAT      O20150   7.048   4.164   3.049
 6583WAT     H120151   7.131   4.121   3.069
 6583WAT     H220152   7.026   4.133   2.961
 6584WAT      O20153   2.260   0.197   5.413
 6584WAT     H120154   2.286   0.153   5.332
 6584WAT     H220155   2.175   0.236   5.392
 6585WAT      O20156   1.216   2.501   3.375
 6585WAT     H120157   1.299   2.453   3.374
 6585WAT     H220158   1.149   2.433   3.382
 6586WAT      O20159   0.902   5.675   4.381
 6586WAT     H120160   0.983   5.654   4.427
 6586WAT     H220161   0.870   5.591   4.348
 6587WAT      O20162   4.525   6.993   1.869
 6587WAT     H120163   4.437   6.973   1.902
 6587WAT     H220164   4.534   6.938   1.791
 6588WAT      O20165   6.815   2.651   0.150
 6588WAT     H120166   6.721   2.639   0.132
 6588WAT     H220167   6.835   2.737   0.114
 6589WAT      O20168   2.884   4.708   5.732
 6589WAT     H120169   2.915   4.769   5.666
 6589WAT     H220170   2.947   4.636   5.730
 6590WAT      O20171   1.924   4.345   1.872
 6590WAT     H120172   1.925   4.345   1.777
 6590WAT     H220173   1.944   4.436   1.896
 6591WAT      O20174   3.977   5.650   5.125
 6591WAT     H120175   3.885   5.676   5.120
 6591WAT     H220176   3.982   5.593   5.202
 6592WAT      O20177   7.482   3.829   2.774
 6592WAT     H120178   7.522   3.782   2.701
 6592WAT     H220179   7.550   3.832   2.841
 6593WAT      O20180   5.359   4.681   3.708
 6593WAT     H120181   5.439   4.642   3.674
 6593WAT     H220182   5.288   4.635   3.663
 6594WAT      O20183   6.018   0.669   0.022
 6594WAT     H120184   6.061   0.755   0.026
 6594WAT     H220185   5.946   0.676   0.084
 6595WAT      O20186   3.775   4.929   1.606
 6595WAT     H120187   3.780   4.975   1.690
 6595WAT     H220188   3.698   4.873   1.613
 6596WAT      O20189   7.384   4.315   0.711
 6596WAT     H120190   7.460   4.373   0.701
 6596WAT     H220191   7.398   4.246   0.646
 6597WAT      O20192   6.583   4.324   4.376
 6597WAT     H120193   6.591   4.310   4.282
 6597WAT     H220194   6.545   4.412   4.383
 6598WAT      O20195   0.261   5.375   4.887
 6598WAT     H120196   0.282   5.433   4.960
 6598WAT     H220197   0.178   5.334   4.911
 6599WAT      O20198   4.569   2.328   4.548
 6599WAT     H120199   4.474   2.318   4.541
 6599WAT     H220200   4.601   2.311   4.460
 6600WAT      O20201   3.699   6.962   6.181
 6600WAT     H120202   3.726   6.956   6.089
 6600WAT     H220203   3.752   7.033   6.217
 6601WAT      O20204   6.466   5.736   2.615
 6601WAT     H120205   6.558   5.712   2.630
 6601WAT     H220206   6.470   5.824   2.578
 6602WAT      O20207   7.125   5.243   4.864
 6602WAT     H120208   7.084   5.322   4.828
 6602WAT     H220209   7.123   5.180   4.793
 6603WAT      O20210   7.352   0.693   2.782
 6603WAT     H120211   7.417   0.658   2.721
 6603WAT     H220212   7.269   0.658   2.751
 6604WAT      O20213   0.856   6.929   4.691
 6604WAT     H120214   0.856   6.834   4.704
 6604WAT     H220215   0.890   6.942   4.603
 6605WAT      O20216   5.111   6.830   6.201
 6605WAT     H120217   5.161   6.749   6.210
 6605WAT     H220218   5.022   6.806   6.224
 6606WAT      O20219   1.419   6.644   4.145
 6606WAT     H120220   1.469   6.683   4.073
 6606WAT     H220221   1.428   6.550   4.133
 6607WAT      O20222   3.997   3.410   3.209
 6607WAT     H120223   4.019   3.336   3.154
 6607WAT     H220224   3.947   3.372   3.282
 6608WAT      O20225   5.691   5.240   0.508
 6608WAT     H120226   5.667   5.332   0.510
 6608WAT     H220227   5.682   5.214   0.417
 6609WAT      O20228   2.332   4.878   0.066
 6609WAT     H120229   2.361   4.810   0.005
 6609WAT     H220230   2.242   4.855   0.089
 6610WAT      O20231   0.554   0.464   0.476
 6610WAT     H120232   0.591   0.421   0.399
 6610WAT     H220233   0.510   0.542   0.442
 6611WAT      O20234   2.778   0.039   2.599
 6611WAT     H120235   2.791  -0.035   2.539
 6611WAT     H220236   2.724   0.101   2.550
 6612WAT      O20237   6.440   2.658   0.735
 6612WAT     H120238   6.401   2.587   0.684
 6612WAT     H220239   6.533   2.635   0.741
 6613WAT      O20240   6.293   0.923   5.505
 6613WAT     H120241   6.273   0.835   5.537
 6613WAT     H220242   6.314   0.973   5.583
 6614WAT      O20243   2.483   6.051   4.501
 6614WAT     H120244   2.429   6.109   4.448
 6614WAT     H220245   2.424   6.022   4.571
 6615WAT      O20246   6.440   6.452   1.231
 6615WAT     H120247   6.362   6.419   1.275
 6615WAT     H220248   6.409   6.527   1.181
 6616WAT      O20249   4.336   0.043   4.742
 6616WAT     H120250   4.290   0.123   4.769
 6616WAT     H220251   4.413   0.075   4.694
 6617WAT      O20252   2.258   5.301   4.014
 6617WAT     H120253   2.181   5.262   4.056
 6617WAT     H220254   2.268   5.251   3.933
 6618WAT      O20255   3.351   1.816   1.256
 6618WAT     H120256   3.285   1.827   1.188
 6618WAT     H220257   3.434   1.827   1.211
 6619WAT      O20258   5.724   4.873   5.106
 6619WAT     H120259   5.661   4.841   5.042
 6619WAT     H220260   5.757   4.794   5.149
 6620WAT      O20261   2.851   2.696   3.883
 6620WAT     H120262   2.792   2.712   3.958
 6620WAT     H220263   2.884   2.608   3.898
 6621WAT      O20264   7.546   6.534   2.697
 6621WAT     H120265   7.525   6.618   2.657
 6621WAT     H220266   7.625   6.552   2.749
 6622WAT      O20267   3.561   4.060   0.623
 6622WAT     H120268   3.500   4.038   0.693
 6622WAT     H220269   3.546   3.993   0.556
 6623WAT      O20270   0.823   3.692   3.594
 6623WAT     H120271   0.756   3.752   3.627
 6623WAT     H220272   0.784   3.605   3.604
 6624WAT      O20273   2.930   3.788   6.118
 6624WAT     H120274   2.946   3.731   6.042
 6624WAT     H220275   2.836   3.782   6.133
 6625WAT      O20276   0.743   7.182   1.481
 6625WAT     H120277   0.661   7.227   1.502
 6625WAT     H220278   0.769   7.140   1.563
 6626WAT      O20279   3.337   5.119   3.455
 6626WAT     H120280   3.395   5.156   3.387
 6626WAT     H220281   3.304   5.039   3.416
 6627WAT      O20282   6.239   4.330   5.872
 6627WAT     H120283   6.167   4.393   5.868
 6627WAT     H220284   6.315   4.379   5.840
 6628WAT      O20285   6.483   6.069   3.069
 6628WAT     H120286   6.501   6.100   2.980
 6628WAT     H220287   6.411   6.124   3.099
 6629WAT      O20288   6.427   3.149   2.432
 6629WAT     H120289   6.398   3.126   2.344
 6629WAT     H220290   6.496   3.085   2.452
 6630WAT      O20291   0.316   1.861   3.461
 6630WAT     H120292   0.222   1.849   3.449
 6630WAT     H220293   0.355   1.779   3.430
 6631WAT      O20294   2.945   3.839   1.509
 6631WAT     H120295   2.886   3.763   1.509
 6631WAT     H220296   2.887   3.914   1.492
 6632WAT      O20297   1.040   3.105   0.684
 6632WAT     H120298   1.127   3.114   0.723
 6632WAT     H220299   1.053   3.117   0.590
 6633WAT      O20300   4.604   0.685   3.119
 6633WAT     H120301   4.530   0.740   3.143
 6633WAT     H220302   4.581   0.649   3.033
 6634WAT      O20303   7.154   6.102   4.168
 6634WAT     H120304   7.228   6.122   4.112
 6634WAT     H220305   7.079   6.096   4.109
 6635WAT      O20306   1.239   3.948   1.775
 6635WAT     H120307   1.150   3.914   1.767
 6635WAT     H220308   1.292   3.870   1.791
 6636WAT      O20309   3.991   1.047   4.267
 6636WAT     H120310   3.933   0.971   4.271
 6636WAT     H220311   3.934   1.119   4.237
 6637WAT      O20312   3.136   5.326   0.321
 6637WAT     H120313   3.065   5.290   0.267
 6637WAT     H220314   3.206   5.345   0.259
 6638WAT      O20315   1.722   1.666   3.367
 6638WAT     H120316   1.798   1.609   3.384
 6638WAT     H220317   1.672   1.618   3.301
 6639WAT      O20318   2.793   0.144   5.080
 6639WAT     H120319   2.804   0.228   5.036
 6639WAT     H220320   2.842   0.153   5.161
 6640WAT      O20321   2.882  -0.001   4.845
 6640WAT     H120322   2.804   0.046   4.817
 6640WAT     H220323   2.873  -0.006   4.941
 6641WAT      O20324   3.913   1.647   4.217
 6641WAT     H120325   3.937   1.716   4.279
 6641WAT     H220326   3.903   1.569   4.270
 6642WAT      O20327   3.716   3.387   5.963
 6642WAT     H120328   3.666   3.380   5.882
 6642WAT     H220329   3.803   3.356   5.940
 6643WAT      O20330   4.393   2.727   2.577
 6643WAT     H120331   4.412   2.760   2.665
 6643WAT     H220332   4.337   2.795   2.538
 6644WAT      O20333   1.795   1.086   6.144
 6644WAT     H120334   1.761   1.144   6.212
 6644WAT     H220335   1.775   1.131   6.062
 6645WAT      O20336   3.153   0.586   4.029
 6645WAT     H120337   3.168   0.670   3.985
 6645WAT     H220338   3.227   0.531   4.004
 6646WAT      O20339   5.586   4.962   6.015
 6646WAT     H120340   5.670   4.920   5.998
 6646WAT     H220341   5.607   5.055   6.025
 6647WAT      O20342   5.394   5.832   3.385
 6647WAT     H120343   5.467   5.825   3.324
 6647WAT     H220344   5.316   5.832   3.329
 6648WAT      O20345   4.967   3.556   3.561
 6648WAT     H120346   4.928   3.605   3.633
 6648WAT     H220347   4.898   3.553   3.494
 6649WAT      O20348   0.597   1.777   4.181
 6649WAT     H120349   0.676   1.786   4.127
 6649WAT     H220350   0.533   1.836   4.141
 6650WAT      O20351   5.510   7.160   3.106
 6650WAT     H120352   5.477   7.086   3.157
 6650WAT     H220353   5.588   7.127   3.063
 6651WAT      O20354   1.232   6.244   2.588
 6651WAT     H120355   1.214   6.188   2.513
 6651WAT     H220356   1.314   6.211   2.624
 6652WAT      O20357   1.740   5.053   5.627
 6652WAT     H120358   1.768   4.989   5.693
 6652WAT     H220359   1.681   5.005   5.570
 6653WAT      O20360   0.733   3.152   0.994
 6653WAT     H120361   0.647   3.117   1.021
 6653WAT     H220362   0.742   3.124   0.903
 6654WAT      O20363   2.305   0.112   5.166
 6654WAT     H120364   2.380   0.053   5.171
 6654WAT     H220365   2.234   0.058   5.130
 6655WAT      O20366   0.128   7.079   0.259
 6655WAT     H120367   0.165   7.011   0.202
 6655WAT     H220368   0.122   7.037   0.345
 6656WAT      O20369   4.926   3.345   2.909
 6656WAT     H120370   4.904   3.400   2.984
 6656WAT     H220371   4.937   3.406   2.836
 6657WAT      O20372   3.070   1.927   4.290
 6657WAT     H120373   2.978   1.926   4.316
 6657WAT     H220374   3.078   1.853   4.230
 6658WAT      O20375   7.045   3.210   0.304
 6658WAT     H120376   7.119   3.267   0.324
 6658WAT     H220377   7.081   3.121   0.310
 6659WAT      O20378   5.532   6.062   1.548
 6659WAT     H120379   5.594   5.990   1.565
 6659WAT     H220380   5.588   6.137   1.529
 6660WAT      O20381   6.519   1.190   2.757
 6660WAT     H120382   6.476   1.237   2.686
 6660WAT     H220383   6.528   1.100   2.725
 6661WAT      O20384   3.228   4.538   0.569
 6661WAT     H120385   3.244   4.470   0.634
 6661WAT     H220386   3.244   4.620   0.616
 6662WAT      O20387   1.971   5.365   4.134
 6662WAT     H120388   1.954   5.308   4.060
 6662WAT     H220389   1.885   5.402   4.156
 6663WAT      O20390   2.273   6.887   5.628
 6663WAT     H120391   2.236   6.873   5.541
 6663WAT     H220392   2.238   6.815   5.681
 6664WAT      O20393   2.802   4.381   1.763
 6664WAT     H120394   2.739   4.311   1.749
 6664WAT     H220395   2.758   4.442   1.823
 6665WAT      O20396   1.087   2.855   4.468
 6665WAT     H120397   1.171   2.816   4.491
 6665WAT     H220398   1.061   2.905   4.545
 6666WAT      O20399   6.123   1.392   3.792
 6666WAT     H120400   6.197   1.448   3.769
 6666WAT     H220401   6.125   1.322   3.727
 6667WAT      O20402   5.459   2.289   5.186
 6667WAT     H120403   5.376   2.291   5.139
 6667WAT     H220404   5.476   2.196   5.202
 6668WAT      O20405   5.098   1.349   2.627
 6668WAT     H120406   5.137   1.435   2.612
 6668WAT     H220407   5.080   1.315   2.539
 6669WAT      O20408   6.809   3.563   4.818
 6669WAT     H120409   6.857   3.591   4.740
 6669WAT     H220410   6.763   3.484   4.791
 6670WAT      O20411   6.343   4.195   3.014
 6670WAT     H120412   6.301   4.230   2.936
 6670WAT     H220413   6.349   4.101   2.999
 6671WAT      O20414   7.489   4.730   2.521
 6671WAT     H120415   7.519   4.779   2.444
 6671WAT     H220416   7.471   4.642   2.488
 6672WAT      O20417   4.743   2.685   5.601
 6672WAT     H120418   4.711   2.599   5.628
 6672WAT     H220419   4.831   2.668   5.568
 6673WAT      O20420   1.591   0.946   0.080
 6673WAT     H120421   1.510   0.933   0.031
 6673WAT     H220422   1.634   0.860   0.079
 6674WAT      O20423   6.537   5.328   3.141
 6674WAT     H120424   6.447   5.355   3.127
 6674WAT     H220425   6.588   5.409   3.141
 6675WAT      O20426   5.603   7.027   4.167
 6675WAT     H120427   5.544   6.983   4.106
 6675WAT     H220428   5.545   7.064   4.234
 6676WAT      O20429   4.212   6.323   1.135
 6676WAT     H120430   4.267   6.245   1.135
 6676WAT     H220431   4.231   6.366   1.051
 6677WAT      O20432   5.286   5.632   0.257
 6677WAT     H120433   5.214   5.591   0.208
 6677WAT     H220434   5.302   5.571   0.329
 6678WAT      O20435   3.864   5.564   0.503
 6678WAT     H120436   3.789   5.588   0.558
 6678WAT     H220437   3.825   5.534   0.421
 6679WAT      O20438   1.497   5.254   4.668
 6679WAT     H120439   1.440   5.284   4.597
 6679WAT     H220440   1.504   5.160   4.656
 6680WAT      O20441   0.908   5.196   1.502
 6680WAT     H120442   0.897   5.106   1.532
 6680WAT     H220443   1.001   5.202   1.478
 6681WAT      O20444   0.341   4.918   2.151
 6681WAT     H120445   0.367   4.833   2.186
 6681WAT     H220446   0.294   4.896   2.070
 6682WAT      O20447   5.140   5.612   4.142
 6682WAT     H120448   5.080   5.580   4.210
 6682WAT     H220449   5.096   5.690   4.107
 6683WAT      O20450   6.777   5.483   0.129
 6683WAT     H120451   6.721   5.413   0.163
 6683WAT     H220452   6.718   5.538   0.078
 6684WAT      O20453   1.941   6.928   2.522
 6684WAT     H120454   1.887   6.857   2.557
 6684WAT     H220455   1.948   6.909   2.429
 6685WAT      O20456   7.505   2.121   2.427
 6685WAT     H120457   7.501   2.201   2.481
 6685WAT     H220458   7.594   2.120   2.392
 6686WAT      O20459   0.351   7.147   1.080
 6686WAT     H120460   0.276   7.112   1.031
 6686WAT     H220461   0.428   7.119   1.030
 6687WAT      O20462   0.981   4.320   0.558
 6687WAT     H120463   1.021   4.386   0.501
 6687WAT     H220464   1.048   4.302   0.624
 6688WAT      O20465   4.935   4.991   1.758
 6688WAT     H120466   4.856   4.996   1.812
 6688WAT     H220467   4.908   5.025   1.673
 6689WAT      O20468   2.211   0.526   4.966
 6689WAT     H120469   2.117   0.516   4.983
 6689WAT     H220470   2.253   0.480   5.039
 6690WAT      O20471   6.687   4.441   2.581
 6690WAT     H120472   6.688   4.406   2.670
 6690WAT     H220473   6.777   4.465   2.564
 6691WAT      O20474   0.740   5.478   3.982
 6691WAT     H120475   0.804   5.432   3.928
 6691WAT     H220476   0.723   5.559   3.935
 6692WAT      O20477   7.324   4.687   2.101
 6692WAT     H120478   7.269   4.626   2.149
 6692WAT     H220479   7.278   4.701   2.018
 6693WAT      O20480   4.064   2.705   5.934
 6693WAT     H120481   4.134   2.739   5.989
 6693WAT     H220482   4.004   2.663   5.995
 6694WAT      O20483   6.429   5.553   4.674
 6694WAT     H120484   6.397   5.547   4.764
 6694WAT     H220485   6.372   5.618   4.632
 6695WAT      O20486   3.943   2.863   1.808
 6695WAT     H120487   3.886   2.880   1.884
 6695WAT     H220488   3.919   2.775   1.779
 6696WAT      O20489   1.044   2.566   4.589
 6696WAT     H120490   0.969   2.626   4.584
 6696WAT     H220491   1.049   2.528   4.501
 6697WAT      O20492   4.429   0.823   1.344
 6697WAT     H120493   4.396   0.737   1.373
 6697WAT     H220494   4.494   0.802   1.277
 6698WAT      O20495   4.464   5.245   4.774
 6698WAT     H120496   4.513   5.164   4.760
 6698WAT     H220497   4.529   5.308   4.806
 6699WAT      O20498   1.477   0.568   4.226
 6699WAT     H120499   1.403   0.585   4.166
 6699WAT     H220500   1.436   0.562   4.312
 6700WAT      O20501   2.119   0.810   2.721
 6700WAT     H120502   2.057   0.749   2.680
 6700WAT     H220503   2.148   0.867   2.650
 6701WAT      O20504   0.972   6.059   1.918
 6701WAT     H120505   0.880   6.046   1.896
 6701WAT     H220506   1.020   6.029   1.841
 6702WAT      O20507   6.407   2.569   3.841
 6702WAT     H120508   6.388   2.662   3.826
 6702WAT     H220509   6.502   2.564   3.844
 6703WAT      O20510   2.339   1.077   1.807
 6703WAT     H120511   2.246   1.063   1.791
 6703WAT     H220512   2.351   1.055   1.900
 6704WAT      O20513   3.460   4.202   5.635
 6704WAT     H120514   3.437   4.188   5.543
 6704WAT     H220515   3.477   4.296   5.642
 6705WAT      O20516   6.864   2.438   2.887
 6705WAT     H120517   6.823   2.502   2.829
 6705WAT     H220518   6.901   2.490   2.959
 6706WAT      O20519   2.036   0.195   3.323
 6706WAT     H120520   1.997   0.245   3.252
 6706WAT     H220521   2.131   0.201   3.308
 6707WAT      O20522   3.210   5.885   4.716
 6707WAT     H120523   3.140   5.873   4.651
 6707WAT     H220524   3.186   5.827   4.788
 6708WAT      O20525   1.792   4.734   4.958
 6708WAT     H120526   1.886   4.713   4.957
 6708WAT     H220527   1.787   4.818   4.912
 6709WAT      O20528   6.196   2.060   1.063
 6709WAT     H120529   6.190   2.027   0.973
 6709WAT     H220530   6.198   1.981   1.117
 6710WAT      O20531   1.286   1.630   3.355
 6710WAT     H120532   1.207   1.647   3.304
 6710WAT     H220533   1.343   1.705   3.338
 6711WAT      O20534   3.275   2.485   0.158
 6711WAT     H120535   3.343   2.512   0.096
 6711WAT     H220536   3.231   2.412   0.114
 6712WAT      O20537   4.177   1.265   4.107
 6712WAT     H120538   4.162   1.356   4.083
 6712WAT     H220539   4.093   1.222   4.094
 6713WAT      O20540   1.289   6.877   1.386
 6713WAT     H120541   1.319   6.900   1.298
 6713WAT     H220542   1.355   6.914   1.444
 6714WAT      O20543   5.336   2.320   2.005
 6714WAT     H120544   5.294   2.269   2.075
 6714WAT     H220545   5.273   2.319   1.934
 6715WAT      O20546   6.818   0.661   2.980
 6715WAT     H120547   6.884   0.598   3.008
 6715WAT     H220548   6.855   0.701   2.901
 6716WAT      O20549   3.473   1.609   4.661
 6716WAT     H120550   3.435   1.565   4.585
 6716WAT     H220551   3.567   1.615   4.640
 6717WAT      O20552   4.015   4.695   3.909
 6717WAT     H120553   4.021   4.649   3.825
 6717WAT     H220554   4.040   4.785   3.889
 6718WAT      O20555   1.323   1.142   1.278
 6718WAT     H120556   1.306   1.071   1.217
 6718WAT     H220557   1.395   1.191   1.238
 6719WAT      O20558   7.224   3.020   4.611
 6719WAT     H120559   7.172   2.940   4.623
 6719WAT     H220560   7.298   2.992   4.557
 6720WAT      O20561   6.988   0.226   2.494
 6720WAT     H120562   6.912   0.237   2.438
 6720WAT     H220563   7.006   0.132   2.490
 6721WAT      O20564   4.229   3.762   2.149
 6721WAT     H120565   4.169   3.687   2.156
 6721WAT     H220566   4.277   3.746   2.068
 6722WAT      O20567   4.731   2.089   3.684
 6722WAT     H120568   4.696   2.039   3.611
 6722WAT     H220569   4.662   2.153   3.704
 6723WAT      O20570   2.870   0.136   5.342
 6723WAT     H120571   2.826   0.051   5.333
 6723WAT     H220572   2.885   0.145   5.436
 6724WAT      O20573   6.024   1.400   0.372
 6724WAT     H120574   6.079   1.445   0.308
 6724WAT     H220575   6.065   1.314   0.382
 6725WAT      O20576   0.940   5.810   0.363
 6725WAT     H120577   0.865   5.773   0.316
 6725WAT     H220578   1.017   5.778   0.316
 6726WAT      O20579   0.608   1.404   3.896
 6726WAT     H120580   0.541   1.448   3.844
 6726WAT     H220581   0.679   1.388   3.834
 6727WAT      O20582   2.928   2.468   2.267
 6727WAT     H120583   2.899   2.381   2.240
 6727WAT     H220584   2.855   2.502   2.319
 6728WAT      O20585   2.062   2.366   1.609
 6728WAT     H120586   1.991   2.336   1.551
 6728WAT     H220587   2.138   2.316   1.581
 6729WAT      O20588   1.082   0.627   5.810
 6729WAT     H120589   1.145   0.699   5.799
 6729WAT     H220590   1.059   0.603   5.721
 6730WAT      O20591   5.765   4.170   0.093
 6730WAT     H120592   5.815   4.187   0.013
 6730WAT     H220593   5.674   4.163   0.065
 6731WAT      O20594   6.669   7.168   1.661
 6731WAT     H120595   6.608   7.166   1.735
 6731WAT     H220596   6.633   7.235   1.602
 6732WAT      O20597   6.802   5.312   5.657
 6732WAT     H120598   6.853   5.254   5.601
 6732WAT     H220599   6.718   5.269   5.666
 6733WAT      O20600   2.566   2.631   2.811
 6733WAT     H120601   2.523   2.693   2.751
 6733WAT     H220602   2.643   2.678   2.843
 6734WAT      O20603   5.078   1.997   0.432
 6734WAT     H120604   5.034   2.083   0.429
 6734WAT     H220605   5.011   1.938   0.466
 6735WAT      O20606   5.023   1.616   1.400
 6735WAT     H120607   5.073   1.595   1.321
 6735WAT     H220608   4.932   1.617   1.371
 6736WAT      O20609   2.023   6.456   2.942
 6736WAT     H120610   2.047   6.545   2.916
 6736WAT     H220611   1.980   6.419   2.865
 6737WAT      O20612   3.978   3.726   3.914
 6737WAT     H120613   3.938   3.793   3.858
 6737WAT     H220614   3.906   3.667   3.935
 6738WAT      O20615   6.516   3.218   3.819
 6738WAT     H120616   6.439   3.170   3.788
 6738WAT     H220617   6.548   3.165   3.892
 6739WAT      O20618   1.131   6.639   1.937
 6739WAT     H120619   1.207   6.661   1.883
 6739WAT     H220620   1.056   6.646   1.877
 6740WAT      O20621   1.761   2.252   2.290
 6740WAT     H120622   1.743   2.252   2.196
 6740WAT     H220623   1.703   2.320   2.325
 6741WAT      O20624   2.956   1.123   3.118
 6741WAT     H120625   2.878   1.162   3.159
 6741WAT     H220626   2.955   1.156   3.029
 6742WAT      O20627   2.583   5.731   5.598
 6742WAT     H120628   2.563   5.767   5.511
 6742WAT     H220629   2.595   5.638   5.583
 6743WAT      O20630   6.896   1.287   2.714
 6743WAT     H120631   6.828   1.332   2.765
 6743WAT     H220632   6.964   1.266   2.779
 6744WAT      O20633   5.333   4.723   1.086
 6744WAT     H120634   5.239   4.731   1.105
 6744WAT     H220635   5.376   4.741   1.170
 6745WAT      O20636   5.628   4.088   2.939
 6745WAT     H120637   5.697   4.070   2.875
 6745WAT     H220638   5.564   4.140   2.891
 6746WAT      O20639   6.182   4.677   5.997
 6746WAT     H120640   6.151   4.761   6.031
 6746WAT     H220641   6.233   4.700   5.920
 6747WAT      O20642   3.500   3.487   2.061
 6747WAT     H120643   3.485   3.582   2.060
 6747WAT     H220644   3.430   3.452   2.005
 6748WAT      O20645   4.726   2.299   0.666
 6748WAT     H120646   4.723   2.339   0.579
 6748WAT     H220647   4.646   2.247   0.671
 6749WAT      O20648   3.142   1.399   5.923
 6749WAT     H120649   3.063   1.447   5.949
 6749WAT     H220650   3.167   1.438   5.839
 6750WAT      O20651   3.669   4.755   3.982
 6750WAT     H120652   3.700   4.836   3.943
 6750WAT     H220653   3.655   4.776   4.074
 6751WAT      O20654   6.119   4.371   0.359
 6751WAT     H120655   6.059   4.300   0.336
 6751WAT     H220656   6.103   4.438   0.291
 6752WAT      O20657   3.900   2.292   5.214
 6752WAT     H120658   3.913   2.209   5.167
 6752WAT     H220659   3.988   2.325   5.230
 6753WAT      O20660   0.850   2.933   3.183
 6753WAT     H120661   0.934   2.900   3.217
 6753WAT     H220662   0.822   2.867   3.120
 6754WAT      O20663   1.139   3.748   2.792
 6754WAT     H120664   1.214   3.794   2.830
 6754WAT     H220665   1.142   3.771   2.699
 6755WAT      O20666   7.332   0.216   0.436
 6755WAT     H120667   7.375   0.218   0.521
 6755WAT     H220668   7.243   0.187   0.455
 6756WAT      O20669   2.462   6.106   0.968
 6756WAT     H120670   2.415   6.188   0.949
 6756WAT     H220671   2.478   6.068   0.881
 6757WAT      O20672   1.584   4.319   0.956
 6757WAT     H120673   1.507   4.291   0.906
 6757WAT     H220674   1.628   4.237   0.979
 6758WAT      O20675   1.515   6.327   0.786
 6758WAT     H120676   1.484   6.338   0.875
 6758WAT     H220677   1.565   6.406   0.767
 6759WAT      O20678   4.406   5.939   4.685
 6759WAT     H120679   4.464   5.950   4.610
 6759WAT     H220680   4.408   6.024   4.729
 6760WAT      O20681   4.443   5.197   1.749
 6760WAT     H120682   4.500   5.120   1.742
 6760WAT     H220683   4.498   5.270   1.718
 6761WAT      O20684   3.583   2.101   4.934
 6761WAT     H120685   3.571   2.180   4.881
 6761WAT     H220686   3.675   2.080   4.926
 6762WAT      O20687   4.859   6.788   4.781
 6762WAT     H120688   4.815   6.869   4.756
 6762WAT     H220689   4.852   6.732   4.704
 6763WAT      O20690   4.044   1.171   2.808
 6763WAT     H120691   4.125   1.120   2.800
 6763WAT     H220692   4.009   1.146   2.893
 6764WAT      O20693   4.801   5.390   2.021
 6764WAT     H120694   4.810   5.305   1.977
 6764WAT     H220695   4.862   5.447   1.975
 6765WAT      O20696   0.022   4.611   4.686
 6765WAT     H120697   0.072   4.531   4.701
 6765WAT     H220698   0.045   4.638   4.597
 6766WAT      O20699   3.509   2.402   4.675
 6766WAT     H120700   3.512   2.379   4.582
 6766WAT     H220701   3.440   2.347   4.712
 6767WAT      O20702   3.690   1.370   1.463
 6767WAT     H120703   3.709   1.290   1.415
 6767WAT     H220704   3.630   1.419   1.407
 6768WAT      O20705   5.305   0.888   3.814
 6768WAT     H120706   5.293   0.963   3.871
 6768WAT     H220707   5.222   0.881   3.766
 6769WAT      O20708   1.119   2.526   5.941
 6769WAT     H120709   1.052   2.461   5.963
 6769WAT     H220710   1.072   2.609   5.938
 6770WAT      O20711   3.332   4.275   5.919
 6770WAT     H120712   3.329   4.196   5.866
 6770WAT     H220713   3.294   4.343   5.863
 6771WAT      O20714   4.462   4.634   0.291
 6771WAT     H120715   4.373   4.664   0.309
 6771WAT     H220716   4.517   4.712   0.304
 6772WAT      O20717   5.301   2.821   1.113
 6772WAT     H120718   5.274   2.838   1.023
 6772WAT     H220719   5.290   2.726   1.124
 6773WAT      O20720   1.280   5.308   3.460
 6773WAT     H120721   1.336   5.272   3.528
 6773WAT     H220722   1.340   5.342   3.394
 6774WAT      O20723   6.381   5.837   4.390
 6774WAT     H120724   6.340   5.878   4.314
 6774WAT     H220725   6.377   5.743   4.372
 6775WAT      O20726   5.371   6.662   4.386
 6775WAT     H120727   5.291   6.620   4.354
 6775WAT     H220728   5.349   6.755   4.389
 6776WAT      O20729   4.288   6.618   3.136
 6776WAT     H120730   4.374   6.653   3.113
 6776WAT     H220731   4.231   6.695   3.140
 6777WAT      O20732   4.407   2.872   4.600
 6777WAT     H120733   4.481   2.820   4.569
 6777WAT     H220734   4.330   2.823   4.570
 6778WAT      O20735   1.924   7.113   3.649
 6778WAT     H120736   1.997   7.120   3.587
 6778WAT     H220737   1.932   7.025   3.685
 6779WAT      O20738   7.337   6.730   1.773
 6779WAT     H120739   7.350   6.674   1.696
 6779WAT     H220740   7.268   6.686   1.823
 6780WAT      O20741   1.932   5.040   4.339
 6780WAT     H120742   1.937   5.104   4.268
 6780WAT     H220743   2.018   4.998   4.341
 6781WAT      O20744   4.447   2.488   4.738
 6781WAT     H120745   4.369   2.513   4.687
 6781WAT     H220746   4.494   2.427   4.681
 6782WAT      O20747   5.418   6.857   0.568
 6782WAT     H120748   5.346   6.809   0.527
 6782WAT     H220749   5.490   6.793   0.570
 6783WAT      O20750   3.829   0.396   3.650
 6783WAT     H120751   3.798   0.487   3.647
 6783WAT     H220752   3.759   0.346   3.609
 6784WAT      O20753   4.705   0.067   3.808
 6784WAT     H120754   4.729   0.030   3.724
 6784WAT     H220755   4.787   0.067   3.859
 6785WAT      O20756   2.785   0.879   4.004
 6785WAT     H120757   2.692   0.869   3.986
 6785WAT     H220758   2.815   0.790   4.024
 6786WAT      O20759   3.017   0.292   5.598
 6786WAT     H120760   2.972   0.370   5.631
 6786WAT     H220761   2.972   0.219   5.640
 6787WAT      O20762   5.887   3.656   3.154
 6787WAT     H120763   5.835   3.700   3.087
 6787WAT     H220764   5.971   3.702   3.153
 6788WAT      O20765   3.655   2.361   4.358
 6788WAT     H120766   3.734   2.376   4.410
 6788WAT     H220767   3.626   2.448   4.333
 6789WAT      O20768   6.457   4.525   3.738
 6789WAT     H120769   6.370   4.528   3.696
 6789WAT     H220770   6.500   4.450   3.696
 6790WAT      O20771   4.367   3.751   1.906
 6790WAT     H120772   4.419   3.802   1.844
 6790WAT     H220773   4.280   3.747   1.867
 6791WAT      O20774   0.314   1.865   2.586
 6791WAT     H120775   0.297   1.952   2.622
 6791WAT     H220776   0.409   1.855   2.592
 6792WAT      O20777   1.461   4.400   1.895
 6792WAT     H120778   1.499   4.487   1.907
 6792WAT     H220779   1.480   4.378   1.803
 6793WAT      O20780   5.073   6.371   0.245
 6793WAT     H120781   5.060   6.282   0.214
 6793WAT     H220782   5.082   6.423   0.165
 6794WAT      O20783   4.596   6.991   1.348
 6794WAT     H120784   4.564   7.004   1.259
 6794WAT     H220785   4.580   6.899   1.366
 6795WAT      O20786   6.130   6.637   5.828
 6795WAT     H120787   6.151   6.674   5.743
 6795WAT     H220788   6.127   6.542   5.813
 6796WAT      O20789   2.550   0.685   0.863
 6796WAT     H120790   2.536   0.710   0.772
 6796WAT     H220791   2.550   0.589   0.862
 6797WAT      O20792   2.051   5.880   5.622
 6797WAT     H120793   2.146   5.888   5.633
 6797WAT     H220794   2.038   5.790   5.594
 6798WAT      O20795   4.151   3.928   6.073
 6798WAT     H120796   4.135   3.845   6.028
 6798WAT     H220797   4.120   3.995   6.013
 6799WAT      O20798   7.412   4.747   5.862
 6799WAT     H120799   7.341   4.810   5.855
 6799WAT     H220800   7.399   4.688   5.788
 6800WAT      O20801   7.281   2.545   6.156
 6800WAT     H120802   7.297   2.485   6.083
 6800WAT     H220803   7.342   2.617   6.141
 6801WAT      O20804   3.194   6.498   4.220
 6801WAT     H120805   3.116   6.479   4.168
 6801WAT     H220806   3.162   6.556   4.290
 6802WAT      O20807   5.801   3.049   4.670
 6802WAT     H120808   5.739   2.978   4.690
 6802WAT     H220809   5.759   3.128   4.704
 6803WAT      O20810   0.356   1.404   5.656
 6803WAT     H120811   0.435   1.449   5.686
 6803WAT     H220812   0.388   1.327   5.610
 6804WAT      O20813   5.358   1.736   0.074
 6804WAT     H120814   5.428   1.800   0.084
 6804WAT     H220815   5.311   1.739   0.158
 6805WAT      O20816   1.631   3.625   5.757
 6805WAT     H120817   1.683   3.664   5.686
 6805WAT     H220818   1.636   3.532   5.741
 6806WAT      O20819   6.689   7.002   5.801
 6806WAT     H120820   6.611   6.947   5.799
 6806WAT     H220821   6.755   6.949   5.846
 6807WAT      O20822   5.860   0.048   3.819
 6807WAT     H120823   5.871   0.141   3.801
 6807WAT     H220824   5.779   0.024   3.773
 6808WAT      O20825   6.467   3.601   4.630
 6808WAT     H120826   6.449   3.583   4.538
 6808WAT     H220827   6.428   3.686   4.647
 6809WAT      O20828   3.334   4.063   3.590
 6809WAT     H120829   3.279   4.129   3.548
 6809WAT     H220830   3.359   4.004   3.518
 6810WAT      O20831   1.069   4.455   2.258
 6810WAT     H120832   1.048   4.425   2.347
 6810WAT     H220833   1.157   4.421   2.241
 6811WAT      O20834   4.876   4.909   2.763
 6811WAT     H120835   4.955   4.961   2.749
 6811WAT     H220836   4.899   4.821   2.733
 6812WAT      O20837   5.284   5.376   2.332
 6812WAT     H120838   5.265   5.405   2.243
 6812WAT     H220839   5.348   5.439   2.365
 6813WAT      O20840   0.589   2.060   1.802
 6813WAT     H120841   0.665   2.008   1.826
 6813WAT     H220842   0.552   2.016   1.726
 6814WAT      O20843   1.759   2.001   4.781
 6814WAT     H120844   1.682   2.025   4.730
 6814WAT     H220845   1.806   1.939   4.725
 6815WAT      O20846   0.410   0.858   5.297
 6815WAT     H120847   0.365   0.911   5.231
 6815WAT     H220848   0.344   0.795   5.327
 6816WAT      O20849   4.219   6.377   0.328
 6816WAT     H120850   4.214   6.321   0.250
 6816WAT     H220851   4.138   6.429   0.325
 6817WAT      O20852   4.037   3.748   1.555
 6817WAT     H120853   3.965   3.691   1.582
 6817WAT     H220854   4.022   3.763   1.462
 6818WAT      O20855   1.711   0.439   0.123
 6818WAT     H120856   1.763   0.382   0.066
 6818WAT     H220857   1.699   0.388   0.203
 6819WAT      O20858   1.911   5.142   1.056
 6819WAT     H120859   1.999   5.127   1.092
 6819WAT     H220860   1.874   5.210   1.112
 6820WAT      O20861   1.778   7.002   0.641
 6820WAT     H120862   1.847   7.060   0.608
 6820WAT     H220863   1.699   7.057   0.641
 6821WAT      O20864   5.527   3.697   2.864
 6821WAT     H120865   5.493   3.650   2.940
 6821WAT     H220866   5.496   3.647   2.789
 6822WAT      O20867   3.156   0.507   0.849
 6822WAT     H120868   3.208   0.470   0.921
 6822WAT     H220869   3.091   0.562   0.891
 6823WAT      O20870   4.396   3.157   5.211
 6823WAT     H120871   4.346   3.230   5.249
 6823WAT     H220872   4.385   3.167   5.117
 6824WAT      O20873   0.694   1.246   2.691
 6824WAT     H120874   0.618   1.256   2.634
 6824WAT     H220875   0.754   1.315   2.663
 6825WAT      O20876   3.701   4.545   0.932
 6825WAT     H120877   3.773   4.557   0.871
 6825WAT     H220878   3.713   4.456   0.967
 6826WAT      O20879   0.794   4.943   2.047
 6826WAT     H120880   0.876   4.895   2.062
 6826WAT     H220881   0.734   4.877   2.013
 6827WAT      O20882   0.446   3.014   4.269
 6827WAT     H120883   0.487   2.928   4.265
 6827WAT     H220884   0.516   3.075   4.247
 6828WAT      O20885   0.994   0.594   4.712
 6828WAT     H120886   0.919   0.580   4.769
 6828WAT     H220887   1.069   0.597   4.771
 6829WAT      O20888   4.152   1.847   4.940
 6829WAT     H120889   4.113   1.880   4.859
 6829WAT     H220890   4.087   1.787   4.976
 6830WAT      O20891   4.203   2.778   4.429
 6830WAT     H120892   4.247   2.793   4.345
 6830WAT     H220893   4.112   2.804   4.413
 6831WAT      O20894   4.054   5.371   2.893
 6831WAT     H120895   4.052   5.276   2.885
 6831WAT     H220896   4.065   5.402   2.803
 6832WAT      O20897   3.441   6.184   1.676
 6832WAT     H120898   3.381   6.165   1.748
 6832WAT     H220899   3.435   6.108   1.619
 6833WAT      O20900   4.835   4.889   4.427
 6833WAT     H120901   4.871   4.893   4.338
 6833WAT     H220902   4.822   4.980   4.452
 6834WAT      O20903   0.136   6.293   5.107
 6834WAT     H120904   0.129   6.350   5.031
 6834WAT     H220905   0.059   6.314   5.160
 6835WAT      O20906   0.706   5.971   1.776
 6835WAT     H120907   0.788   5.934   1.742
 6835WAT     H220908   0.656   5.895   1.807
 6836WAT      O20909   7.343   5.816   2.854
 6836WAT     H120910   7.434   5.844   2.862
 6836WAT     H220911   7.336   5.781   2.766
 6837WAT      O20912   5.166   1.652   1.840
 6837WAT     H120913   5.142   1.696   1.759
 6837WAT     H220914   5.085   1.647   1.890
 6838WAT      O20915   5.024   5.740   2.471
 6838WAT     H120916   5.074   5.670   2.513
 6838WAT     H220917   4.943   5.745   2.520
 6839WAT      O20918   5.920   0.079   5.672
 6839WAT     H120919   6.006   0.111   5.700
 6839WAT     H220920   5.871   0.068   5.753
 6840WAT      O20921   0.657   1.712   4.808
 6840WAT     H120922   0.741   1.674   4.832
 6840WAT     H220923   0.604   1.637   4.779
 6841WAT      O20924   2.879   4.091   5.966
 6841WAT     H120925   2.928   4.084   5.884
 6841WAT     H220926   2.929   4.037   6.028
 6842WAT      O20927   6.297   1.983   6.075
 6842WAT     H120928   6.381   2.024   6.093
 6842WAT     H220929   6.308   1.891   6.098
 6843WAT      O20930   5.503   3.436   2.382
 6843WAT     H120931   5.594   3.453   2.357
 6843WAT     H220932   5.453   3.500   2.331
 6844WAT      O20933   5.166   2.383   3.479
 6844WAT     H120934   5.126   2.446   3.419
 6844WAT     H220935   5.228   2.335   3.424
 6845WAT      O20936   5.314   4.413   2.340
 6845WAT     H120937   5.386   4.372   2.292
 6845WAT     H220938   5.242   4.351   2.331
 6846WAT      O20939   6.983   5.600   0.565
 6846WAT     H120940   6.920   5.583   0.495
 6846WAT     H220941   7.008   5.692   0.552
 6847WAT      O20942   6.593   1.059   4.372
 6847WAT     H120943   6.570   0.981   4.424
 6847WAT     H220944   6.516   1.116   4.380
 6848WAT      O20945   3.885   1.377   2.096
 6848WAT     H120946   3.816   1.371   2.030
 6848WAT     H220947   3.898   1.286   2.124
 6849WAT      O20948   0.462   6.900   5.062
 6849WAT     H120949   0.377   6.936   5.088
 6849WAT     H220950   0.442   6.846   4.985
 6850WAT      O20951   2.253   2.386   6.022
 6850WAT     H120952   2.291   2.403   5.936
 6850WAT     H220953   2.260   2.470   6.068
 6851WAT      O20954   1.291   1.133   5.298
 6851WAT     H120955   1.358   1.086   5.248
 6851WAT     H220956   1.216   1.138   5.239
 6852WAT      O20957   6.734   2.565   4.082
 6852WAT     H120958   6.741   2.540   3.990
 6852WAT     H220959   6.724   2.660   4.080
 6853WAT      O20960   7.342   1.518   0.212
 6853WAT     H120961   7.427   1.492   0.248
 6853WAT     H220962   7.350   1.503   0.118
 6854WAT      O20963   0.457   3.509   5.534
 6854WAT     H120964   0.475   3.512   5.440
 6854WAT     H220965   0.391   3.440   5.544
 6855WAT      O20966   1.005   7.095   3.023
 6855WAT     H120967   0.969   7.006   3.028
 6855WAT     H220968   0.931   7.150   2.999
 6856WAT      O20969   0.488   2.003   2.311
 6856WAT     H120970   0.530   1.917   2.304
 6856WAT     H220971   0.492   2.039   2.222
 6857WAT      O20972   0.339   2.084   2.916
 6857WAT     H120973   0.369   2.110   2.829
 6857WAT     H220974   0.273   2.017   2.900
 6858WAT      O20975   4.327   1.845   0.756
 6858WAT     H120976   4.373   1.801   0.685
 6858WAT     H220977   4.302   1.930   0.720
 6859WAT      O20978   0.944   3.458   4.149
 6859WAT     H120979   0.925   3.382   4.205
 6859WAT     H220980   0.878   3.453   4.080
 6860WAT      O20981   7.565   2.011   4.474
 6860WAT     H120982   7.499   2.044   4.534
 6860WAT     H220983   7.579   2.083   4.411
 6861WAT      O20984   1.330   2.096   0.977
 6861WAT     H120985   1.313   2.173   0.923
 6861WAT     H220986   1.390   2.043   0.925
 6862WAT      O20987   3.909   6.714   1.908
 6862WAT     H120988   3.961   6.792   1.930
 6862WAT     H220989   3.875   6.683   1.993
 6863WAT      O20990   0.483   6.106   4.757
 6863WAT     H120991   0.538   6.033   4.784
 6863WAT     H220992   0.501   6.117   4.664
 6864WAT      O20993   0.673   4.767   0.171
 6864WAT     H120994   0.637   4.740   0.087
 6864WAT     H220995   0.731   4.696   0.196
 6865WAT      O20996   2.798   6.096   3.224
 6865WAT     H120997   2.836   6.041   3.155
 6865WAT     H220998   2.862   6.166   3.237
 6866WAT      O20999   4.535   5.361   2.052
 6866WAT     H121000   4.630   5.356   2.059
 6866WAT     H221001   4.518   5.444   2.007
 6867WAT      O21002   3.304   4.775   0.709
 6867WAT     H121003   3.355   4.737   0.781
 6867WAT     H221004   3.290   4.866   0.735
 6868WAT      O21005   4.002   4.277   1.702
 6868WAT     H121006   3.971   4.321   1.623
 6868WAT     H221007   3.969   4.330   1.774
 6869WAT      O21008   0.203   1.257   2.780
 6869WAT     H121009   0.232   1.167   2.791
 6869WAT     H221010   0.137   1.253   2.711
 6870WAT      O21011   7.537   4.470   1.624
 6870WAT     H121012   7.550   4.380   1.596
 6870WAT     H221013   7.464   4.465   1.687
 6871WAT      O21014   2.998   5.948   3.997
 6871WAT     H121015   2.960   5.937   4.085
 6871WAT     H221016   2.992   5.861   3.957
 6872WAT      O21017   3.991   2.399   0.500
 6872WAT     H121018   4.053   2.425   0.432
 6872WAT     H221019   3.905   2.421   0.464
 6873WAT      O21020   2.275   2.197   1.478
 6873WAT     H121021   2.354   2.156   1.444
 6873WAT     H221022   2.233   2.236   1.402
 6874WAT      O21023   1.508   3.411   5.556
 6874WAT     H121024   1.581   3.422   5.495
 6874WAT     H221025   1.437   3.374   5.503
 6875WAT      O21026   0.397   2.395   5.271
 6875WAT     H121027   0.377   2.379   5.179
 6875WAT     H221028   0.323   2.447   5.303
 6876WAT      O21029   7.235   0.715   2.313
 6876WAT     H121030   7.170   0.761   2.260
 6876WAT     H221031   7.204   0.624   2.315
 6877WAT      O21032   3.716   0.607   1.886
 6877WAT     H121033   3.653   0.555   1.835
 6877WAT     H221034   3.694   0.698   1.867
 6878WAT      O21035   0.244   5.185   2.169
 6878WAT     H121036   0.259   5.184   2.074
 6878WAT     H221037   0.283   5.103   2.200
 6879WAT      O21038   0.695   5.079   4.899
 6879WAT     H121039   0.635   5.054   4.829
 6879WAT     H221040   0.781   5.052   4.867
 6880WAT      O21041   7.459   5.187   1.910
 6880WAT     H121042   7.494   5.236   1.835
 6880WAT     H221043   7.403   5.120   1.872
 6881WAT      O21044   0.616   5.476   2.878
 6881WAT     H121045   0.690   5.532   2.900
 6881WAT     H221046   0.590   5.504   2.790
 6882WAT      O21047   2.073   0.947   2.979
 6882WAT     H121048   2.058   0.894   2.901
 6882WAT     H221049   2.117   1.026   2.948
 6883WAT      O21050   2.848   1.447   0.295
 6883WAT     H121051   2.753   1.456   0.287
 6883WAT     H221052   2.868   1.368   0.244
 6884WAT      O21053   7.027   3.329   3.376
 6884WAT     H121054   7.005   3.347   3.284
 6884WAT     H221055   7.105   3.273   3.372
 6885WAT      O21056   2.218   0.807   5.475
 6885WAT     H121057   2.233   0.720   5.440
 6885WAT     H221058   2.292   0.822   5.535
 6886WAT      O21059   0.931   2.275   1.712
 6886WAT     H121060   0.886   2.220   1.648
 6886WAT     H221061   0.976   2.341   1.659
 6887WAT      O21062   2.058   2.386   4.197
 6887WAT     H121063   2.142   2.342   4.188
 6887WAT     H221064   2.002   2.322   4.242
 6888WAT      O21065   3.489   6.963   1.220
 6888WAT     H121066   3.523   6.910   1.148
 6888WAT     H221067   3.475   7.050   1.182
 6889WAT      O21068   7.251   5.343   0.062
 6889WAT     H121069   7.179   5.355   0.124
 6889WAT     H221070   7.217   5.280  -0.002
 6890WAT      O21071   2.751   3.687   0.233
 6890WAT     H121072   2.745   3.618   0.299
 6890WAT     H221073   2.771   3.766   0.282
 6891WAT      O21074   6.606   1.483   5.875
 6891WAT     H121075   6.632   1.552   5.815
 6891WAT     H221076   6.511   1.478   5.866
 6892WAT      O21077   3.696   0.631   5.006
 6892WAT     H121078   3.623   0.574   4.981
 6892WAT     H221079   3.711   0.686   4.930
 6893WAT      O21080   1.142   4.419   6.125
 6893WAT     H121081   1.053   4.435   6.156
 6893WAT     H221082   1.177   4.353   6.186
 6894WAT      O21083   1.763   3.392   2.376
 6894WAT     H121084   1.669   3.411   2.379
 6894WAT     H221085   1.805   3.478   2.380
 6895WAT      O21086   5.359   2.684   5.889
 6895WAT     H121087   5.389   2.768   5.924
 6895WAT     H221088   5.439   2.634   5.874
 6896WAT      O21089   1.692   1.049   2.033
 6896WAT     H121090   1.656   0.995   2.104
 6896WAT     H221091   1.617   1.066   1.976
 6897WAT      O21092   6.774   1.514   0.982
 6897WAT     H121093   6.844   1.565   1.023
 6897WAT     H221094   6.742   1.571   0.911
 6898WAT      O21095   7.072   4.471   3.328
 6898WAT     H121096   7.113   4.465   3.242
 6898WAT     H221097   7.066   4.566   3.345
 6899WAT      O21098   7.304   2.747   0.181
 6899WAT     H121099   7.366   2.799   0.130
 6899WAT     H221100   7.293   2.667   0.131
 6900WAT      O21101   6.094   0.220   0.998
 6900WAT     H121102   6.038   0.179   0.932
 6900WAT     H221103   6.105   0.310   0.967
 6901WAT      O21104   6.949   6.791   2.901
 6901WAT     H121105   6.983   6.716   2.853
 6901WAT     H221106   6.946   6.861   2.837
 6902WAT      O21107   6.786   6.701   5.664
 6902WAT     H121108   6.746   6.708   5.751
 6902WAT     H221109   6.724   6.743   5.605
 6903WAT      O21110   5.510   2.751   4.292
 6903WAT     H121111   5.442   2.797   4.242
 6903WAT     H221112   5.516   2.665   4.250
 6904WAT      O21113   0.509   3.368   2.563
 6904WAT     H121114   0.533   3.309   2.634
 6904WAT     H221115   0.512   3.314   2.484
 6905WAT      O21116   0.634   4.575   0.702
 6905WAT     H121117   0.674   4.488   0.697
 6905WAT     H221118   0.676   4.625   0.633
 6906WAT      O21119   4.404   3.490   3.988
 6906WAT     H121120   4.450   3.561   4.032
 6906WAT     H221121   4.460   3.468   3.913
 6907WAT      O21122   4.511   2.751   6.054
 6907WAT     H121123   4.538   2.661   6.034
 6907WAT     H221124   4.565   2.776   6.129
 6908WAT      O21125   1.169   3.000   3.011
 6908WAT     H121126   1.253   3.029   2.977
 6908WAT     H221127   1.162   2.908   2.986
 6909WAT      O21128   5.336   5.158   1.492
 6909WAT     H121129   5.247   5.138   1.462
 6909WAT     H221130   5.353   5.247   1.461
 6910WAT      O21131   0.577   3.569   6.127
 6910WAT     H121132   0.622   3.586   6.044
 6910WAT     H221133   0.516   3.642   6.137
 6911WAT      O21134   5.530   1.919   4.729
 6911WAT     H121135   5.508   1.828   4.708
 6911WAT     H221136   5.491   1.970   4.658
 6912WAT      O21137   1.391   3.565   3.905
 6912WAT     H121138   1.473   3.544   3.862
 6912WAT     H221139   1.387   3.661   3.907
 6913WAT      O21140   4.270   0.520   3.225
 6913WAT     H121141   4.316   0.602   3.204
 6913WAT     H221142   4.328   0.474   3.285
 6914WAT      O21143   4.263   4.894   0.911
 6914WAT     H121144   4.214   4.816   0.938
 6914WAT     H221145   4.270   4.887   0.816
 6915WAT      O21146   7.542   4.469   5.323
 6915WAT     H121147   7.564   4.489   5.414
 6915WAT     H221148   7.494   4.386   5.327
 6916WAT      O21149   6.336   6.552   1.705
 6916WAT     H121150   6.312   6.499   1.629
 6916WAT     H221151   6.254   6.564   1.752
 6917WAT      O21152   0.550   2.524   4.060
 6917WAT     H121153   0.529   2.543   3.969
 6917WAT     H221154   0.480   2.466   4.090
 6918WAT      O21155   3.740   3.994   2.298
 6918WAT     H121156   3.694   3.920   2.338
 6918WAT     H221157   3.832   3.970   2.304
 6919WAT      O21158   6.670   4.215   4.122
 6919WAT     H121159   6.662   4.133   4.074
 6919WAT     H221160   6.753   4.208   4.169
 6920WAT      O21161   3.085   2.191   0.411
 6920WAT     H121162   3.039   2.236   0.481
 6920WAT     H221163   3.150   2.255   0.380
 6921WAT      O21164   2.213   3.898   3.930
 6921WAT     H121165   2.176   3.983   3.955
 6921WAT     H221166   2.172   3.878   3.846
 6922WAT      O21167   0.391   1.615   3.395
 6922WAT     H121168   0.323   1.552   3.368
 6922WAT     H221169   0.471   1.582   3.354
 6923WAT      O21170   2.916   5.988   5.224
 6923WAT     H121171   3.011   5.980   5.226
 6923WAT     H221172   2.884   5.898   5.225
 6924WAT      O21173   6.967   3.021   5.883
 6924WAT     H121174   7.017   2.942   5.901
 6924WAT     H221175   6.952   3.019   5.788
 6925WAT      O21176   3.446   1.997   4.583
 6925WAT     H121177   3.382   1.931   4.558
 6925WAT     H221178   3.498   2.013   4.504
 6926WAT      O21179   5.744   2.293   5.934
 6926WAT     H121180   5.817   2.338   5.978
 6926WAT     H221181   5.777   2.276   5.846
 6927WAT      O21182   0.694   3.465   4.369
 6927WAT     H121183   0.740   3.389   4.332
 6927WAT     H221184   0.618   3.428   4.414
 6928WAT      O21185   2.137   3.165   3.466
 6928WAT     H121186   2.052   3.209   3.467
 6928WAT     H221187   2.196   3.226   3.509
 6929WAT      O21188   4.057   0.755   2.123
 6929WAT     H121189   4.125   0.813   2.157
 6929WAT     H221190   4.014   0.807   2.055
 6930WAT      O21191   0.296   2.194   1.444
 6930WAT     H121192   0.242   2.117   1.424
 6930WAT     H221193   0.232   2.265   1.452
 6931WAT      O21194   4.860   5.683   4.721
 6931WAT     H121195   4.846   5.622   4.794
 6931WAT     H221196   4.774   5.696   4.683
 6932WAT      O21197   2.683   0.355   2.865
 6932WAT     H121198   2.600   0.313   2.844
 6932WAT     H221199   2.743   0.282   2.882
 6933WAT      O21200   0.950   1.878   1.084
 6933WAT     H121201   0.935   1.966   1.050
 6933WAT     H221202   1.044   1.875   1.102
 6934WAT      O21203   2.744   4.909   3.277
 6934WAT     H121204   2.656   4.871   3.264
 6934WAT     H221205   2.798   4.866   3.212
 6935WAT      O21206   4.526   3.526   0.700
 6935WAT     H121207   4.611   3.546   0.738
 6935WAT     H221208   4.512   3.595   0.635
 6936WAT      O21209   7.038   0.732   4.708
 6936WAT     H121210   7.116   0.729   4.653
 6936WAT     H221211   7.070   0.712   4.796
 6937WAT      O21212   4.585   2.445   5.622
 6937WAT     H121213   4.517   2.433   5.556
 6937WAT     H221214   4.545   2.415   5.704
 6938WAT      O21215   0.475   1.139   5.527
 6938WAT     H121216   0.555   1.144   5.476
 6938WAT     H221217   0.414   1.091   5.471
 6939WAT      O21218   3.978   0.660   5.079
 6939WAT     H121219   3.997   0.712   5.001
 6939WAT     H221220   4.011   0.572   5.058
 6940WAT      O21221   1.364   7.197   5.318
 6940WAT     H121222   1.302   7.125   5.310
 6940WAT     H221223   1.439   7.170   5.265
 6941WAT      O21224   0.708   1.420   1.294
 6941WAT     H121225   0.684   1.328   1.306
 6941WAT     H221226   0.803   1.421   1.295
 6942WAT      O21227   0.687   0.688   5.023
 6942WAT     H121228   0.721   0.610   4.978
 6942WAT     H221229   0.622   0.724   4.962
 6943WAT      O21230   4.370   1.734   1.620
 6943WAT     H121231   4.292   1.756   1.671
 6943WAT     H221232   4.381   1.808   1.560
 6944WAT      O21233   5.087   3.285   2.634
 6944WAT     H121234   5.023   3.231   2.589
 6944WAT     H221235   5.064   3.375   2.609
 6945WAT      O21236   4.542   4.677   2.114
 6945WAT     H121237   4.599   4.600   2.122
 6945WAT     H221238   4.526   4.684   2.020
 6946WAT      O21239   2.925   3.041   2.764
 6946WAT     H121240   2.846   3.012   2.810
 6946WAT     H221241   2.974   2.960   2.747
 6947WAT      O21242   4.794   6.445   4.148
 6947WAT     H121243   4.845   6.510   4.100
 6947WAT     H221244   4.844   6.364   4.139
 6948WAT      O21245   6.740   2.468   1.982
 6948WAT     H121246   6.710   2.440   1.895
 6948WAT     H221247   6.747   2.564   1.974
 6949WAT      O21248   4.114   4.493   5.387
 6949WAT     H121249   4.045   4.436   5.421
 6949WAT     H221250   4.161   4.440   5.323
 6950WAT      O21251   5.759   0.448   4.497
 6950WAT     H121252   5.830   0.497   4.456
 6950WAT     H221253   5.727   0.390   4.428
 6951WAT      O21254   3.136   6.755   5.025
 6951WAT     H121255   3.064   6.695   5.004
 6951WAT     H221256   3.137   6.757   5.121
 6952WAT      O21257   1.103   1.563   3.772
 6952WAT     H121258   1.122   1.580   3.680
 6952WAT     H221259   1.175   1.506   3.801
 6953WAT      O21260   2.480   1.620   5.692
 6953WAT     H121261   2.426   1.658   5.761
 6953WAT     H221262   2.537   1.691   5.664
 6954WAT      O21263   1.260   0.547   3.231
 6954WAT     H121264   1.196   0.520   3.166
 6954WAT     H221265   1.285   0.466   3.276
 6955WAT      O21266   0.282   5.064   0.318
 6955WAT     H121267   0.368   5.088   0.350
 6955WAT     H221268   0.298   5.024   0.233
 6956WAT      O21269   5.240   2.108   0.796
 6956WAT     H121270   5.297   2.111   0.719
 6956WAT     H221271   5.155   2.080   0.761
 6957WAT      O21272   5.609   7.032   2.509
 6957WAT     H121273   5.554   6.968   2.464
 6957WAT     H221274   5.613   7.107   2.449
 6958WAT      O21275   6.356   3.306   5.542
 6958WAT     H121276   6.376   3.359   5.465
 6958WAT     H221277   6.441   3.274   5.572
 6959WAT      O21278   7.525   1.043   4.251
 6959WAT     H121279   7.490   1.027   4.164
 6959WAT     H221280   7.619   1.028   4.242
 6960WAT      O21281   4.711   7.015   4.667
 6960WAT     H121282   4.726   7.040   4.575
 6960WAT     H221283   4.692   7.098   4.711
 6961WAT      O21284   5.106   4.373   1.283
 6961WAT     H121285   5.195   4.336   1.280
 6961WAT     H221286   5.115   4.451   1.337
 6962WAT      O21287   0.562   0.425   2.484
 6962WAT     H121288   0.526   0.450   2.399
 6962WAT     H221289   0.589   0.333   2.472
 6963WAT      O21290   7.120   3.891   0.840
 6963WAT     H121291   7.039   3.895   0.789
 6963WAT     H221292   7.159   3.808   0.817
 6964WAT      O21293   7.533   7.041   4.827
 6964WAT     H121294   7.524   7.048   4.732
 6964WAT     H221295   7.581   6.959   4.841
 6965WAT      O21296   6.334   4.157   2.059
 6965WAT     H121297   6.302   4.190   1.975
 6965WAT     H221298   6.423   4.125   2.039
 6966WAT      O21299   5.655   7.162   1.355
 6966WAT     H121300   5.661   7.257   1.368
 6966WAT     H221301   5.594   7.133   1.423
 6967WAT      O21302   2.856   4.461   4.046
 6967WAT     H121303   2.930   4.509   4.008
 6967WAT     H221304   2.781   4.517   4.031
 6968WAT      O21305   3.800   0.225   1.405
 6968WAT     H121306   3.759   0.308   1.380
 6968WAT     H221307   3.809   0.177   1.323
 6969WAT      O21308   0.671   0.145   4.810
 6969WAT     H121309   0.707   0.061   4.840
 6969WAT     H221310   0.711   0.159   4.724
 6970WAT      O21311   5.869   7.144   3.360
 6970WAT     H121312   5.923   7.208   3.312
 6970WAT     H221313   5.832   7.194   3.433
 6971WAT      O21314   3.632   6.085   0.286
 6971WAT     H121315   3.664   6.174   0.299
 6971WAT     H221316   3.689   6.049   0.218
 6972WAT      O21317   4.036   5.688   5.718
 6972WAT     H121318   4.006   5.597   5.708
 6972WAT     H221319   4.031   5.725   5.630
 6973WAT      O21320   0.675   0.171   0.360
 6973WAT     H121321   0.670   0.253   0.312
 6973WAT     H221322   0.686   0.104   0.293
 6974WAT      O21323   2.598   2.351   4.115
 6974WAT     H121324   2.621   2.259   4.105
 6974WAT     H221325   2.611   2.388   4.027
 6975WAT      O21326   5.462   2.360   1.107
 6975WAT     H121327   5.530   2.343   1.173
 6975WAT     H221328   5.477   2.294   1.040
 6976WAT      O21329   4.970   0.479   1.503
 6976WAT     H121330   5.009   0.416   1.563
 6976WAT     H221331   5.041   0.503   1.443
 6977WAT      O21332   6.327   2.701   5.524
 6977WAT     H121333   6.296   2.718   5.435
 6977WAT     H221334   6.421   2.688   5.514
 6978WAT      O21335   2.364   1.870   0.273
 6978WAT     H121336   2.329   1.952   0.308
 6978WAT     H221337   2.289   1.810   0.271
 6979WAT      O21338   5.497   5.931   0.913
 6979WAT     H121339   5.410   5.891   0.921
 6979WAT     H221340   5.533   5.928   1.001
 6980WAT      O21341   2.030   2.223   1.029
 6980WAT     H121342   2.030   2.248   0.937
 6980WAT     H221343   1.971   2.285   1.072
 6981WAT      O21344   1.330   0.528   6.145
 6981WAT     H121345   1.237   0.503   6.148
 6981WAT     H221346   1.345   0.552   6.054
 6982WAT      O21347   5.434   6.335   2.678
 6982WAT     H121348   5.346   6.308   2.651
 6982WAT     H221349   5.483   6.343   2.596
 6983WAT      O21350   4.770   0.438   1.891
 6983WAT     H121351   4.829   0.401   1.826
 6983WAT     H221352   4.767   0.532   1.871
 6984WAT      O21353   4.621   7.005   3.193
 6984WAT     H121354   4.563   7.065   3.145
 6984WAT     H221355   4.587   7.005   3.282
 6985WAT      O21356   2.194   1.913   2.055
 6985WAT     H121357   2.109   1.951   2.036
 6985WAT     H221358   2.181   1.864   2.137
 6986WAT      O21359   6.176   5.579   1.157
 6986WAT     H121360   6.145   5.648   1.098
 6986WAT     H221361   6.184   5.502   1.102
 6987WAT      O21362   5.517   5.226   1.976
 6987WAT     H121363   5.582   5.267   1.919
 6987WAT     H221364   5.549   5.241   2.064
 6988WAT      O21365   3.950   2.427   4.243
 6988WAT     H121366   3.914   2.418   4.155
 6988WAT     H221367   3.942   2.339   4.282
 6989WAT      O21368   0.960   6.988   2.362
 6989WAT     H121369   0.897   7.026   2.423
 6989WAT     H221370   0.981   6.902   2.400
 6990WAT      O21371   0.546   6.796   4.326
 6990WAT     H121372   0.588   6.843   4.254
 6990WAT     H221373   0.592   6.712   4.329
 6991WAT      O21374   0.163   5.934   5.979
 6991WAT     H121375   0.239   5.896   5.934
 6991WAT     H221376   0.185   6.027   5.988
 6992WAT      O21377   1.504   2.481   3.702
 6992WAT     H121378   1.562   2.467   3.627
 6992WAT     H221379   1.451   2.557   3.678
 6993WAT      O21380   5.871   4.741   2.839
 6993WAT     H121381   5.814   4.770   2.768
 6993WAT     H221382   5.824   4.764   2.919
 6994WAT      O21383   4.800   3.567   2.768
 6994WAT     H121384   4.723   3.607   2.808
 6994WAT     H221385   4.774   3.553   2.677
 6995WAT      O21386   5.462   2.631   2.818
 6995WAT     H121387   5.484   2.656   2.729
 6995WAT     H221388   5.443   2.713   2.863
 6996WAT      O21389   1.470   5.663   4.676
 6996WAT     H121390   1.448   5.754   4.697
 6996WAT     H221391   1.410   5.611   4.729
 6997WAT      O21392   5.187   2.020   3.664
 6997WAT     H121393   5.275   2.034   3.629
 6997WAT     H221394   5.151   2.108   3.673
 6998WAT      O21395   6.106   5.079   0.678
 6998WAT     H121396   6.192   5.050   0.647
 6998WAT     H221397   6.065   5.118   0.602
 6999WAT      O21398   6.396   1.963   3.747
 6999WAT     H121399   6.422   1.883   3.700
 6999WAT     H221400   6.318   1.993   3.701
 7000WAT      O21401   0.909   5.541   4.697
 7000WAT     H121402   0.981   5.563   4.638
 7000WAT     H221403   0.920   5.448   4.716
 7001WAT      O21404   6.019   4.269   0.755
 7001WAT     H121405   5.976   4.249   0.672
 7001WAT     H221406   6.111   4.281   0.733
 7002WAT      O21407   6.350   2.442   5.960
 7002WAT     H121408   6.418   2.378   5.978
 7002WAT     H221409   6.389   2.527   5.983
 7003WAT      O21410   5.094   3.053   4.524
 7003WAT     H121411   5.137   3.005   4.453
 7003WAT     H221412   5.058   2.985   4.581
 7004WAT      O21413   3.349   6.692   1.926
 7004WAT     H121414   3.295   6.618   1.901
 7004WAT     H221415   3.431   6.680   1.878
 7005WAT      O21416   4.526   0.984   6.156
 7005WAT     H121417   4.477   0.914   6.114
 7005WAT     H221418   4.584   1.017   6.087
 7006WAT      O21419   2.870   6.982   1.857
 7006WAT     H121420   2.890   6.899   1.899
 7006WAT     H221421   2.899   7.049   1.920
 7007WAT      O21422   7.511   1.280   6.113
 7007WAT     H121423   7.492   1.373   6.110
 7007WAT     H221424   7.425   1.238   6.114
 7008WAT      O21425   3.477   1.389   2.900
 7008WAT     H121426   3.547   1.429   2.849
 7008WAT     H221427   3.404   1.450   2.891
 7009WAT      O21428   6.651   4.882   1.749
 7009WAT     H121429   6.685   4.897   1.837
 7009WAT     H221430   6.617   4.793   1.752
 7010WAT      O21431   3.735   1.918   1.765
 7010WAT     H121432   3.720   1.997   1.817
 7010WAT     H221433   3.738   1.950   1.674
 7011WAT      O21434   5.429   7.150   4.312
 7011WAT     H121435   5.387   7.080   4.362
 7011WAT     H221436   5.356   7.193   4.267
 7012WAT      O21437   4.490   4.436   5.615
 7012WAT     H121438   4.421   4.370   5.624
 7012WAT     H221439   4.473   4.476   5.529
 7013WAT      O21440   0.726   5.758   2.297
 7013WAT     H121441   0.742   5.733   2.207
 7013WAT     H221442   0.726   5.675   2.346
 7014WAT      O21443   5.021   2.072   1.416
 7014WAT     H121444   5.101   2.019   1.407
 7014WAT     H221445   5.053   2.163   1.412
 7015WAT      O21446   6.378   6.961   1.503
 7015WAT     H121447   6.409   6.875   1.475
 7015WAT     H221448   6.450   6.996   1.556
 7016WAT      O21449   7.420   0.410   3.638
 7016WAT     H121450   7.471   0.370   3.567
 7016WAT     H221451   7.423   0.346   3.709
 7017WAT      O21452   0.123   2.106   0.138
 7017WAT     H121453   0.115   2.168   0.211
 7017WAT     H221454   0.051   2.129   0.080
 7018WAT      O21455   4.596   6.716   1.390
 7018WAT     H121456   4.525   6.676   1.340
 7018WAT     H221457   4.646   6.641   1.424
 7019WAT      O21458   1.352   3.331   4.065
 7019WAT     H121459   1.441   3.312   4.035
 7019WAT     H221460   1.320   3.398   4.005
 7020WAT      O21461   4.279   5.388   5.187
 7020WAT     H121462   4.236   5.423   5.265
 7020WAT     H221463   4.260   5.294   5.189
 7021WAT      O21464   1.417   1.485   1.141
 7021WAT     H121465   1.451   1.441   1.063
 7021WAT     H221466   1.482   1.470   1.208
 7022WAT      O21467   7.389   6.318   2.268
 7022WAT     H121468   7.375   6.370   2.347
 7022WAT     H221469   7.357   6.373   2.197
 7023WAT      O21470   2.851   3.094   1.790
 7023WAT     H121471   2.856   3.033   1.716
 7023WAT     H221472   2.789   3.162   1.761
 7024WAT      O21473   7.154   0.915   5.162
 7024WAT     H121474   7.168   0.846   5.098
 7024WAT     H221475   7.164   0.997   5.113
 7025WAT      O21476   6.434   4.182   5.413
 7025WAT     H121477   6.507   4.130   5.447
 7025WAT     H221478   6.375   4.192   5.487
 7026WAT      O21479   6.578   5.609   5.054
 7026WAT     H121480   6.531   5.638   5.132
 7026WAT     H221481   6.509   5.586   4.991
 7027WAT      O21482   2.322   7.010   4.212
 7027WAT     H121483   2.266   7.060   4.154
 7027WAT     H221484   2.402   6.995   4.160
 7028WAT      O21485   3.277   1.942   2.173
 7028WAT     H121486   3.215   1.907   2.109
 7028WAT     H221487   3.363   1.914   2.141
 7029WAT      O21488   5.011   7.112   0.783
 7029WAT     H121489   5.103   7.091   0.767
 7029WAT     H221490   4.996   7.087   0.874
 7030WAT      O21491   5.512   6.494   2.324
 7030WAT     H121492   5.427   6.530   2.300
 7030WAT     H221493   5.519   6.413   2.273
 7031WAT      O21494   7.220   3.273   4.023
 7031WAT     H121495   7.310   3.271   3.990
 7031WAT     H221496   7.183   3.354   3.987
 7032WAT      O21497   0.952   1.727   2.904
 7032WAT     H121498   0.872   1.676   2.890
 7032WAT     H221499   0.929   1.816   2.877
 7033WAT      O21500   6.506   5.418   0.246
 7033WAT     H121501   6.489   5.509   0.273
 7033WAT     H221502   6.458   5.407   0.165
 7034WAT      O21503   4.602   4.312   3.016
 7034WAT     H121504   4.563   4.284   2.932
 7034WAT     H221505   4.530   4.307   3.078
 7035WAT      O21506   2.197   4.393   5.928
 7035WAT     H121507   2.278   4.350   5.957
 7035WAT     H221508   2.128   4.353   5.981
 7036WAT      O21509   6.506   3.339   1.443
 7036WAT     H121510   6.600   3.340   1.430
 7036WAT     H221511   6.469   3.340   1.355
 7037WAT      O21512   0.918   6.682   3.586
 7037WAT     H121513   0.902   6.704   3.494
 7037WAT     H221514   0.831   6.679   3.626
 7038WAT      O21515   1.121   5.630   3.261
 7038WAT     H121516   1.151   5.689   3.192
 7038WAT     H221517   1.122   5.543   3.221
 7039WAT      O21518   1.626   1.539   5.356
 7039WAT     H121519   1.712   1.497   5.356
 7039WAT     H221520   1.575   1.491   5.290
 7040WAT      O21521   7.337   4.440   5.739
 7040WAT     H121522   7.365   4.511   5.681
 7040WAT     H221523   7.349   4.360   5.687
 7041WAT      O21524   5.095   1.771   0.878
 7041WAT     H121525   5.171   1.806   0.925
 7041WAT     H221526   5.127   1.690   0.837
 7042WAT      O21527   1.371   2.509   5.842
 7042WAT     H121528   1.287   2.544   5.872
 7042WAT     H221529   1.358   2.494   5.749
 7043WAT      O21530   5.786   6.179   6.084
 7043WAT     H121531   5.766   6.128   6.006
 7043WAT     H221532   5.860   6.134   6.124
 7044WAT      O21533   2.829   5.124   6.121
 7044WAT     H121534   2.847   5.189   6.189
 7044WAT     H221535   2.735   5.131   6.106
 7045WAT      O21536   5.596   3.542   3.816
 7045WAT     H121537   5.612   3.571   3.906
 7045WAT     H221538   5.612   3.620   3.763
 7046WAT      O21539   2.355   3.046   4.790
 7046WAT     H121540   2.286   3.031   4.725
 7046WAT     H221541   2.342   3.137   4.818
 7047WAT      O21542   5.184   2.953   5.208
 7047WAT     H121543   5.178   3.028   5.150
 7047WAT     H221544   5.184   2.877   5.149
 7048WAT      O21545   1.205   4.201   5.022
 7048WAT     H121546   1.146   4.273   5.002
 7048WAT     H221547   1.188   4.136   4.954
 7049WAT      O21548   4.213   4.424   3.813
 7049WAT     H121549   4.238   4.346   3.763
 7049WAT     H221550   4.126   4.446   3.780
 7050WAT      O21551   0.987   6.414   1.903
 7050WAT     H121552   1.062   6.427   1.961
 7050WAT     H221553   1.024   6.375   1.824
 7051WAT      O21554   2.513   6.788   1.293
 7051WAT     H121555   2.426   6.807   1.256
 7051WAT     H221556   2.538   6.704   1.255
 7052WAT      O21557   4.282   5.095   5.070
 7052WAT     H121558   4.368   5.087   5.029
 7052WAT     H221559   4.221   5.103   4.997
 7053WAT      O21560   6.930   3.691   4.624
 7053WAT     H121561   6.873   3.681   4.548
 7053WAT     H221562   6.999   3.751   4.595
 7054WAT      O21563   7.419   3.897   2.263
 7054WAT     H121564   7.397   3.875   2.172
 7054WAT     H221565   7.489   3.962   2.255
 7055WAT      O21566   5.921   5.555   2.842
 7055WAT     H121567   5.902   5.648   2.842
 7055WAT     H221568   5.857   5.517   2.901
 7056WAT      O21569   6.103   1.628   2.515
 7056WAT     H121570   6.099   1.588   2.428
 7056WAT     H221571   6.096   1.722   2.498
 7057WAT      O21572   7.453   3.847   1.097
 7057WAT     H121573   7.407   3.920   1.056
 7057WAT     H221574   7.393   3.772   1.086
 7058WAT      O21575   1.108   4.410   3.484
 7058WAT     H121576   1.017   4.392   3.461
 7058WAT     H221577   1.159   4.343   3.438
 7059WAT      O21578   3.301   3.249   4.984
 7059WAT     H121579   3.294   3.155   4.967
 7059WAT     H221580   3.386   3.274   4.950
 7060WAT      O21581   2.811   1.754   1.447
 7060WAT     H121582   2.903   1.761   1.472
 7060WAT     H221583   2.807   1.786   1.357
 7061WAT      O21584   7.058   5.315   2.772
 7061WAT     H121585   7.081   5.374   2.700
 7061WAT     H221586   6.994   5.255   2.734
 7062WAT      O21587   1.054   2.368   5.407
 7062WAT     H121588   1.088   2.340   5.322
 7062WAT     H221589   0.968   2.326   5.413
 7063WAT      O21590   1.997   3.539   0.428
 7063WAT     H121591   2.056   3.614   0.414
 7063WAT     H221592   2.052   3.473   0.470
 7064WAT      O21593   3.597   0.557   5.395
 7064WAT     H121594   3.527   0.492   5.383
 7064WAT     H221595   3.550   0.638   5.417
 7065WAT      O21596   3.748   0.146   5.872
 7065WAT     H121597   3.780   0.235   5.857
 7065WAT     H221598   3.819   0.089   5.843
 7066WAT      O21599   7.048   0.114   1.883
 7066WAT     H121600   7.062   0.075   1.797
 7066WAT     H221601   7.074   0.206   1.872
 7067WAT      O21602   4.811   0.285   6.065
 7067WAT     H121603   4.750   0.252   5.999
 7067WAT     H221604   4.808   0.380   6.054
 7068WAT      O21605   6.599   2.679   5.495
 7068WAT     H121606   6.665   2.742   5.466
 7068WAT     H221607   6.623   2.598   5.450
 7069WAT      O21608   0.498   4.558   2.879
 7069WAT     H121609   0.590   4.585   2.873
 7069WAT     H221610   0.474   4.534   2.790
 7070WAT      O21611   6.523   3.844   3.868
 7070WAT     H121612   6.537   3.888   3.952
 7070WAT     H221613   6.582   3.890   3.807
 7071WAT      O21614   6.498   0.336   0.532
 7071WAT     H121615   6.559   0.406   0.552
 7071WAT     H221616   6.456   0.315   0.616
 7072WAT      O21617   2.669   0.145   4.762
 7072WAT     H121618   2.618   0.094   4.699
 7072WAT     H221619   2.709   0.214   4.710
 7073WAT      O21620   4.642   0.209   5.823
 7073WAT     H121621   4.656   0.155   5.746
 7073WAT     H221622   4.600   0.288   5.790
 7074WAT      O21623   3.107   4.296   3.833
 7074WAT     H121624   3.099   4.205   3.861
 7074WAT     H221625   3.044   4.305   3.762
 7075WAT      O21626   5.765   5.851   5.481
 7075WAT     H121627   5.753   5.790   5.409
 7075WAT     H221628   5.678   5.889   5.495
 7076WAT      O21629   2.122   1.434   4.541
 7076WAT     H121630   2.081   1.348   4.547
 7076WAT     H221631   2.208   1.422   4.582
 7077WAT      O21632   4.695   5.055   0.103
 7077WAT     H121633   4.713   4.966   0.136
 7077WAT     H221634   4.658   5.041   0.016
 7078WAT      O21635   7.260   6.861   0.998
 7078WAT     H121636   7.264   6.951   0.965
 7078WAT     H221637   7.187   6.821   0.951
 7079WAT      O21638   4.431   6.162   1.758
 7079WAT     H121639   4.347   6.146   1.715
 7079WAT     H221640   4.488   6.092   1.726
 7080WAT      O21641   0.584   1.956   2.674
 7080WAT     H121642   0.671   1.953   2.635
 7080WAT     H221643   0.574   2.047   2.703
 7081WAT      O21644   1.205   4.148   5.715
 7081WAT     H121645   1.244   4.113   5.635
 7081WAT     H221646   1.265   4.122   5.785
 7082WAT      O21647   6.358   4.137   4.602
 7082WAT     H121648   6.281   4.192   4.609
 7082WAT     H221649   6.340   4.080   4.527
 7083WAT      O21650   0.396   5.678   3.689
 7083WAT     H121651   0.363   5.709   3.773
 7083WAT     H221652   0.356   5.592   3.678
 7084WAT      O21653   5.835   0.655   4.764
 7084WAT     H121654   5.740   0.666   4.753
 7084WAT     H221655   5.847   0.560   4.772
 7085WAT      O21656   5.808   3.232   1.289
 7085WAT     H121657   5.713   3.241   1.278
 7085WAT     H221658   5.842   3.232   1.200
 7086WAT      O21659   6.439   0.041   4.627
 7086WAT     H121660   6.406   0.099   4.558
 7086WAT     H221661   6.360  -0.002   4.660
 7087WAT      O21662   5.578   4.810   5.376
 7087WAT     H121663   5.646   4.763   5.327
 7087WAT     H221664   5.510   4.828   5.312
 7088WAT      O21665   1.293   3.407   0.940
 7088WAT     H121666   1.237   3.457   0.881
 7088WAT     H221667   1.380   3.443   0.926
 7089WAT      O21668   7.562   0.811   1.456
 7089WAT     H121669   7.584   0.904   1.445
 7089WAT     H221670   7.610   0.767   1.386
 7090WAT      O21671   5.286   4.309   5.551
 7090WAT     H121672   5.367   4.355   5.571
 7090WAT     H221673   5.219   4.376   5.552
 7091WAT      O21674   5.347   0.485   3.797
 7091WAT     H121675   5.269   0.518   3.842
 7091WAT     H221676   5.416   0.489   3.863
 7092WAT      O21677   4.006   2.351   3.087
 7092WAT     H121678   3.991   2.332   2.994
 7092WAT     H221679   4.075   2.417   3.087
 7093WAT      O21680   3.558   4.809   1.231
 7093WAT     H121681   3.638   4.854   1.257
 7093WAT     H221682   3.580   4.716   1.235
 7094WAT      O21683   6.481   6.009   3.800
 7094WAT     H121684   6.423   6.060   3.857
 7094WAT     H221685   6.462   6.040   3.712
 7095WAT      O21686   0.682   6.568   0.579
 7095WAT     H121687   0.751   6.537   0.519
 7095WAT     H221688   0.701   6.661   0.592
 7096WAT      O21689   4.142   6.428   5.888
 7096WAT     H121690   4.210   6.496   5.890
 7096WAT     H221691   4.119   6.419   5.796
 7097WAT      O21692   1.834   6.122   3.044
 7097WAT     H121693   1.811   6.209   3.078
 7097WAT     H221694   1.784   6.114   2.963
 7098WAT      O21695   1.265   3.802   0.637
 7098WAT     H121696   1.321   3.784   0.562
 7098WAT     H221697   1.184   3.838   0.599
 7099WAT      O21698   5.277   6.798   0.144
 7099WAT     H121699   5.300   6.887   0.117
 7099WAT     H221700   5.194   6.807   0.190
 7100WAT      O21701   5.824   3.531   2.249
 7100WAT     H121702   5.863   3.617   2.263
 7100WAT     H221703   5.767   3.542   2.173
 7101WAT      O21704   3.690   0.915   1.292
 7101WAT     H121705   3.766   0.963   1.258
 7101WAT     H221706   3.614   0.964   1.260
 7102WAT      O21707   5.996   0.401   3.335
 7102WAT     H121708   6.025   0.362   3.253
 7102WAT     H221709   5.960   0.486   3.310
 7103WAT      O21710   1.332   6.031   5.981
 7103WAT     H121711   1.350   6.101   6.043
 7103WAT     H221712   1.247   6.052   5.943
 7104WAT      O21713   2.481   1.671   4.161
 7104WAT     H121714   2.564   1.623   4.163
 7104WAT     H221715   2.428   1.624   4.096
 7105WAT      O21716   6.090   0.880   2.370
 7105WAT     H121717   6.103   0.975   2.373
 7105WAT     H221718   6.065   0.861   2.280
 7106WAT      O21719   3.226   0.420   1.096
 7106WAT     H121720   3.231   0.498   1.152
 7106WAT     H221721   3.305   0.371   1.116
 7107WAT      O21722   1.781   4.510   2.971
 7107WAT     H121723   1.846   4.507   2.900
 7107WAT     H221724   1.824   4.559   3.041
 7108WAT      O21725   6.625   1.667   5.678
 7108WAT     H121726   6.654   1.740   5.624
 7108WAT     H221727   6.557   1.704   5.734
 7109WAT      O21728   5.634   0.233   0.947
 7109WAT     H121729   5.558   0.290   0.956
 7109WAT     H221730   5.707   0.293   0.931
 7110WAT      O21731   7.386   2.422   4.938
 7110WAT     H121732   7.380   2.517   4.927
 7110WAT     H221733   7.335   2.387   4.865
 7111WAT      O21734   0.504   2.119   2.059
 7111WAT     H121735   0.488   2.213   2.068
 7111WAT     H221736   0.511   2.105   1.965
 7112WAT      O21737   3.129   3.606   0.348
 7112WAT     H121738   3.083   3.688   0.367
 7112WAT     H221739   3.160   3.617   0.258
 7113WAT      O21740   4.999   4.150   2.206
 7113WAT     H121741   4.945   4.229   2.198
 7113WAT     H221742   4.988   4.104   2.123
 7114WAT      O21743   1.677   1.693   4.087
 7114WAT     H121744   1.747   1.649   4.040
 7114WAT     H221745   1.648   1.762   4.028
 7115WAT      O21746   3.478   1.863   1.499
 7115WAT     H121747   3.560   1.911   1.495
 7115WAT     H221748   3.454   1.847   1.408
 7116WAT      O21749   7.064   2.749   4.617
 7116WAT     H121750   6.991   2.802   4.649
 7116WAT     H221751   7.063   2.762   4.523
 7117WAT      O21752   5.199   1.258   5.988
 7117WAT     H121753   5.267   1.230   6.048
 7117WAT     H221754   5.198   1.354   5.995
 7118WAT      O21755   4.204   0.677   4.060
 7118WAT     H121756   4.194   0.595   4.012
 7118WAT     H221757   4.298   0.682   4.080
 7119WAT      O21758   5.755   5.669   0.159
 7119WAT     H121759   5.784   5.601   0.098
 7119WAT     H221760   5.661   5.677   0.144
 7120WAT      O21761   0.087   5.450   2.108
 7120WAT     H121762   0.107   5.357   2.108
 7120WAT     H221763   0.082   5.474   2.016
 7121WAT      O21764   5.771   1.352   4.693
 7121WAT     H121765   5.854   1.377   4.651
 7121WAT     H221766   5.797   1.293   4.763
 7122WAT      O21767   4.712   1.630   4.088
 7122WAT     H121768   4.652   1.662   4.021
 7122WAT     H221769   4.782   1.587   4.039
 7123WAT      O21770   2.048   5.252   5.728
 7123WAT     H121771   2.070   5.170   5.771
 7123WAT     H221772   2.089   5.245   5.641
 7124WAT      O21773   4.756   5.584   6.208
 7124WAT     H121774   4.736   5.660   6.263
 7124WAT     H221775   4.760   5.510   6.270
 7125WAT      O21776   0.154   0.331   6.129
 7125WAT     H121777   0.221   0.361   6.069
 7125WAT     H221778   0.074   0.326   6.076
 7126WAT      O21779   1.848   6.281   0.463
 7126WAT     H121780   1.756   6.305   0.454
 7126WAT     H221781   1.896   6.364   0.459
 7127WAT      O21782   0.632   0.553   1.228
 7127WAT     H121783   0.682   0.473   1.209
 7127WAT     H221784   0.598   0.539   1.317
 7128WAT      O21785   6.137   3.930   0.599
 7128WAT     H121786   6.123   3.896   0.510
 7128WAT     H221787   6.101   4.019   0.596
 7129WAT      O21788   5.489   1.917   0.771
 7129WAT     H121789   5.584   1.920   0.761
 7129WAT     H221790   5.455   1.948   0.687
 7130WAT      O21791   0.482   4.880   4.795
 7130WAT     H121792   0.438   4.964   4.801
 7130WAT     H221793   0.455   4.845   4.710
 7131WAT      O21794   2.492  -0.000   5.441
 7131WAT     H121795   2.502   0.094   5.452
 7131WAT     H221796   2.552  -0.023   5.370
 7132WAT      O21797   0.103   2.211   3.178
 7132WAT     H121798   0.198   2.207   3.166
 7132WAT     H221799   0.077   2.290   3.130
 7133WAT      O21800   3.905   2.546   6.088
 7133WAT     H121801   3.835   2.559   6.151
 7133WAT     H221802   3.880   2.468   6.039
 7134WAT      O21803   7.133   5.700   1.308
 7134WAT     H121804   7.120   5.762   1.236
 7134WAT     H221805   7.069   5.630   1.291
 7135WAT      O21806   3.896   0.671   3.389
 7135WAT     H121807   3.909   0.718   3.307
 7135WAT     H221808   3.859   0.586   3.364
 7136WAT      O21809   3.409   0.559   4.453
 7136WAT     H121810   3.441   0.540   4.365
 7136WAT     H221811   3.330   0.611   4.438
 7137WAT      O21812   6.065   2.306   0.826
 7137WAT     H121813   6.068   2.283   0.733
 7137WAT     H221814   6.018   2.389   0.829
 7138WAT      O21815   0.994   7.135   0.164
 7138WAT     H121816   1.016   7.080   0.239
 7138WAT     H221817   1.074   7.185   0.147
 7139WAT      O21818   3.459   0.837   5.461
 7139WAT     H121819   3.389   0.899   5.442
 7139WAT     H221820   3.430   0.792   5.540
 7140WAT      O21821   3.994   6.015   3.791
 7140WAT     H121822   4.056   6.003   3.719
 7140WAT     H221823   4.035   5.971   3.866
 7141WAT      O21824   2.404   7.003   2.485
 7141WAT     H121825   2.485   7.005   2.434
 7141WAT     H221826   2.366   6.918   2.465
 7142WAT      O21827   0.839   6.762   1.010
 7142WAT     H121828   0.807   6.815   0.938
 7142WAT     H221829   0.930   6.789   1.021
 7143WAT      O21830   5.222   6.859   3.652
 7143WAT     H121831   5.151   6.877   3.713
 7143WAT     H221832   5.301   6.883   3.700
 7144WAT      O21833   0.747   0.687   0.706
 7144WAT     H121834   0.735   0.775   0.670
 7144WAT     H221835   0.704   0.690   0.791
 7145WAT      O21836   7.238   1.155   2.357
 7145WAT     H121837   7.300   1.113   2.416
 7145WAT     H221838   7.190   1.217   2.412
 7146WAT      O21839   1.254   0.793   5.392
 7146WAT     H121840   1.188   0.802   5.323
 7146WAT     H221841   1.338   0.789   5.345
 7147WAT      O21842   7.589   4.192   5.571
 7147WAT     H121843   7.642   4.263   5.608
 7147WAT     H221844   7.653   4.126   5.544
 7148WAT      O21845   6.852   6.015   2.196
 7148WAT     H121846   6.902   6.081   2.149
 7148WAT     H221847   6.879   5.932   2.157
 7149WAT      O21848   6.936   1.087   3.693
 7149WAT     H121849   6.857   1.132   3.724
 7149WAT     H221850   6.954   1.127   3.607
 7150WAT      O21851   6.186   6.431   4.159
 7150WAT     H121852   6.220   6.503   4.105
 7150WAT     H221853   6.149   6.369   4.095
 7151WAT      O21854   2.693   2.083   3.302
 7151WAT     H121855   2.647   2.003   3.274
 7151WAT     H221856   2.639   2.154   3.270
 7152WAT      O21857   0.656   3.409   3.681
 7152WAT     H121858   0.595   3.476   3.712
 7152WAT     H221859   0.613   3.370   3.605
 7153WAT      O21860   5.692   2.944   0.795
 7153WAT     H121861   5.607   2.980   0.821
 7153WAT     H221862   5.734   2.921   0.878
 7154WAT      O21863   6.210   5.485   2.901
 7154WAT     H121864   6.240   5.573   2.879
 7154WAT     H221865   6.115   5.488   2.887
 7155WAT      O21866   6.582   1.483   2.982
 7155WAT     H121867   6.634   1.557   3.014
 7155WAT     H221868   6.647   1.418   2.956
 7156WAT      O21869   1.928   2.570   1.334
 7156WAT     H121870   1.938   2.654   1.290
 7156WAT     H221871   1.871   2.587   1.408
 7157WAT      O21872   3.877   5.909   3.046
 7157WAT     H121873   3.822   5.831   3.036
 7157WAT     H221874   3.832   5.976   2.994
 7158WAT      O21875   7.124   1.305   1.966
 7158WAT     H121876   7.117   1.272   1.876
 7158WAT     H221877   7.060   1.254   2.015
 7159WAT      O21878   6.371   4.948   5.441
 7159WAT     H121879   6.381   4.902   5.524
 7159WAT     H221880   6.461   4.959   5.409
 7160WAT      O21881   4.047   6.208   3.171
 7160WAT     H121882   4.102   6.138   3.207
 7160WAT     H221883   3.958   6.184   3.195
 7161WAT      O21884   6.657   5.359   2.337
 7161WAT     H121885   6.657   5.452   2.359
 7161WAT     H221886   6.716   5.352   2.263
 7162WAT      O21887   2.363   1.468   4.660
 7162WAT     H121888   2.312   1.496   4.736
 7162WAT     H221889   2.454   1.475   4.688
 7163WAT      O21890   1.260   5.508   1.938
 7163WAT     H121891   1.319   5.521   2.012
 7163WAT     H221892   1.300   5.438   1.886
 7164WAT      O21893   6.910   3.284   1.176
 7164WAT     H121894   6.948   3.238   1.251
 7164WAT     H221895   6.853   3.220   1.135
 7165WAT      O21896   5.077   1.900   4.339
 7165WAT     H121897   5.095   1.983   4.295
 7165WAT     H221898   5.071   1.836   4.269
 7166WAT      O21899   4.461   1.243   0.933
 7166WAT     H121900   4.476   1.190   0.854
 7166WAT     H221901   4.412   1.186   0.991
 7167WAT      O21902   7.031   6.629   1.592
 7167WAT     H121903   7.116   6.584   1.596
 7167WAT     H221904   7.052   6.722   1.603
 7168WAT      O21905   0.832   2.970   4.057
 7168WAT     H121906   0.773   2.895   4.060
 7168WAT     H221907   0.789   3.037   4.109
 7169WAT      O21908   2.322   2.677   0.534
 7169WAT     H121909   2.333   2.646   0.444
 7169WAT     H221910   2.262   2.614   0.574
 7170WAT      O21911   1.957   3.897   0.989
 7170WAT     H121912   1.951   3.946   1.071
 7170WAT     H221913   1.879   3.924   0.939
 7171WAT      O21914   7.188   4.309   0.417
 7171WAT     H121915   7.263   4.253   0.434
 7171WAT     H221916   7.185   4.318   0.322
 7172WAT      O21917   3.069   2.718   5.144
 7172WAT     H121918   3.147   2.772   5.159
 7172WAT     H221919   3.102   2.642   5.097
 7173WAT      O21920   1.433   3.681   0.459
 7173WAT     H121921   1.527   3.670   0.470
 7173WAT     H221922   1.409   3.614   0.395
 7174WAT      O21923   7.101   6.251   5.659
 7174WAT     H121924   7.047   6.330   5.658
 7174WAT     H221925   7.054   6.191   5.717
 7175WAT      O21926   0.027   3.894   1.269
 7175WAT     H121927   0.061   3.974   1.230
 7175WAT     H221928  -0.055   3.878   1.223
 7176WAT      O21929   2.994   5.898   3.094
 7176WAT     H121930   3.055   5.824   3.085
 7176WAT     H221931   2.946   5.900   3.011
 7177WAT      O21932   2.829   3.112   5.838
 7177WAT     H121933   2.825   3.038   5.777
 7177WAT     H221934   2.752   3.102   5.893
 7178WAT      O21935   0.130   5.138   2.965
 7178WAT     H121936   0.072   5.063   2.955
 7178WAT     H221937   0.092   5.188   3.038
 7179WAT      O21938   5.038   3.396   0.111
 7179WAT     H121939   5.103   3.340   0.153
 7179WAT     H221940   5.083   3.478   0.094
 7180WAT      O21941   3.961   1.740   6.072
 7180WAT     H121942   4.009   1.823   6.067
 7180WAT     H221943   4.008   1.689   6.138
 7181WAT      O21944   0.929   1.572   4.835
 7181WAT     H121945   0.935   1.536   4.923
 7181WAT     H221946   0.996   1.640   4.832
 7182WAT      O21947   0.624   4.686   3.850
 7182WAT     H121948   0.529   4.679   3.838
 7182WAT     H221949   0.652   4.748   3.782
 7183WAT      O21950   4.127   6.870   3.110
 7183WAT     H121951   4.203   6.903   3.063
 7183WAT     H221952   4.127   6.918   3.194
 7184WAT      O21953   1.242   1.929   3.204
 7184WAT     H121954   1.275   1.970   3.284
 7184WAT     H221955   1.321   1.908   3.154
 7185WAT      O21956   5.052   0.199   1.150
 7185WAT     H121957   5.026   0.257   1.223
 7185WAT     H221958   5.005   0.118   1.166
 7186WAT      O21959   0.448   0.418   1.966
 7186WAT     H121960   0.395   0.434   1.888
 7186WAT     H221961   0.408   0.472   2.034
 7187WAT      O21962   2.080   0.337   0.207
 7187WAT     H121963   2.080   0.346   0.112
 7187WAT     H221964   2.044   0.420   0.239
 7188WAT      O21965   1.430   2.476   0.963
 7188WAT     H121966   1.504   2.531   0.989
 7188WAT     H221967   1.353   2.530   0.982
 7189WAT      O21968   6.677   3.906   2.740
 7189WAT     H121969   6.717   3.840   2.683
 7189WAT     H221970   6.654   3.978   2.680
 7190WAT      O21971   4.821   1.796   4.380
 7190WAT     H121972   4.814   1.892   4.383
 7190WAT     H221973   4.914   1.778   4.373
 7191WAT      O21974   5.650   4.272   2.519
 7191WAT     H121975   5.635   4.249   2.428
 7191WAT     H221976   5.569   4.312   2.548
 7192WAT      O21977   6.134   4.103   3.966
 7192WAT     H121978   6.221   4.141   3.977
 7192WAT     H221979   6.118   4.106   3.871
 7193WAT      O21980   3.653   0.668   6.147
 7193WAT     H121981   3.710   0.689   6.074
 7193WAT     H221982   3.671   0.576   6.166
 7194WAT      O21983   4.101   4.255   3.150
 7194WAT     H121984   4.013   4.219   3.138
 7194WAT     H221985   4.156   4.200   3.095
 7195WAT      O21986   6.045   3.349   4.946
 7195WAT     H121987   6.123   3.361   5.000
 7195WAT     H221988   6.079   3.338   4.857
 7196WAT      O21989   0.189   5.465   6.052
 7196WAT     H121990   0.113   5.439   6.103
 7196WAT     H221991   0.214   5.385   6.005
 7197WAT      O21992   4.864   2.032   3.254
 7197WAT     H121993   4.934   1.986   3.301
 7197WAT     H221994   4.905   2.061   3.173
 7198WAT      O21995   4.145   5.199   4.151
 7198WAT     H121996   4.228   5.203   4.104
 7198WAT     H221997   4.117   5.291   4.157
 7199WAT      O21998   3.784   2.924   2.005
 7199WAT     H121999   3.742   3.008   2.025
 7199WAT     H222000   3.718   2.858   2.026
 7200WAT      O22001   3.446   6.082   3.428
 7200WAT     H122002   3.404   6.022   3.367
 7200WAT     H222003   3.374   6.128   3.471
 7201WAT      O22004   6.244   1.090   0.674
 7201WAT     H122005   6.327   1.105   0.719
 7201WAT     H222006   6.260   1.014   0.619
 7202WAT      O22007   4.249   5.700   1.278
 7202WAT     H122008   4.164   5.691   1.235
 7202WAT     H222009   4.313   5.691   1.207
 7203WAT      O22010   4.954   4.394   1.034
 7203WAT     H122011   5.005   4.396   1.115
 7203WAT     H222012   5.019   4.399   0.964
 7204WAT      O22013   5.542   0.270   0.549
 7204WAT     H122014   5.464   0.243   0.598
 7204WAT     H222015   5.537   0.220   0.467
 7205WAT      O22016   2.692   4.303   5.920
 7205WAT     H122017   2.704   4.327   5.828
 7205WAT     H222018   2.748   4.227   5.932
 7206WAT      O22019   1.326   1.312   4.156
 7206WAT     H122020   1.309   1.354   4.071
 7206WAT     H222021   1.268   1.357   4.217
 7207WAT      O22022   0.652   5.298   3.403
 7207WAT     H122023   0.715   5.228   3.422
 7207WAT     H222024   0.586   5.291   3.472
 7208WAT      O22025   2.086   2.585   4.389
 7208WAT     H122026   2.050   2.671   4.369
 7208WAT     H222027   2.060   2.530   4.315
 7209WAT      O22028   3.678   3.103   1.670
 7209WAT     H122029   3.674   3.198   1.679
 7209WAT     H222030   3.642   3.085   1.583
 7210WAT      O22031   4.521   1.070   3.600
 7210WAT     H122032   4.468   1.029   3.668
 7210WAT     H222033   4.459   1.120   3.548
 7211WAT      O22034   4.842   7.122   3.517
 7211WAT     H122035   4.836   7.030   3.540
 7211WAT     H222036   4.891   7.123   3.435
 7212WAT      O22037   1.759   4.925   1.252
 7212WAT     H122038   1.700   4.855   1.279
 7212WAT     H222039   1.700   4.994   1.220
 7213WAT      O22040   6.415   0.431   4.765
 7213WAT     H122041   6.368   0.512   4.747
 7213WAT     H222042   6.346   0.365   4.774
 7214WAT      O22043   4.201   6.233   3.707
 7214WAT     H122044   4.108   6.211   3.698
 7214WAT     H222045   4.244   6.150   3.725
 7215WAT      O22046   4.042   0.286   4.413
 7215WAT     H122047   4.109   0.249   4.470
 7215WAT     H222048   3.967   0.227   4.423
 7216WAT      O22049   0.783   6.919   0.795
 7216WAT     H122050   0.864   6.909   0.744
 7216WAT     H222051   0.713   6.896   0.733
 7217WAT      O22052   6.402   4.474   5.518
 7217WAT     H122053   6.326   4.503   5.466
 7217WAT     H222054   6.437   4.399   5.469
 7218WAT      O22055   2.335   7.153   1.214
 7218WAT     H122056   2.373   7.234   1.178
 7218WAT     H222057   2.302   7.107   1.137
 7219WAT      O22058   3.659   1.822   3.588
 7219WAT     H122059   3.567   1.831   3.566
 7219WAT     H222060   3.699   1.782   3.511
 7220WAT      O22061   2.367   4.667   4.685
 7220WAT     H122062   2.370   4.712   4.769
 7220WAT     H222063   2.420   4.723   4.627
 7221WAT      O22064   7.323   4.102   3.605
 7221WAT     H122065   7.299   4.171   3.543
 7221WAT     H222066   7.418   4.095   3.598
 7222WAT      O22067   1.331   3.114   1.568
 7222WAT     H122068   1.405   3.167   1.598
 7222WAT     H222069   1.343   3.108   1.473
 7223WAT      O22070   4.092   2.717   1.004
 7223WAT     H122071   4.166   2.759   1.046
 7223WAT     H222072   4.064   2.778   0.936
 7224WAT      O22073   0.803   1.556   5.421
 7224WAT     H122074   0.834   1.620   5.485
 7224WAT     H222075   0.718   1.527   5.455
 7225WAT      O22076   4.270   0.191   4.192
 7225WAT     H122077   4.221   0.165   4.271
 7225WAT     H222078   4.217   0.159   4.119
 7226WAT      O22079   2.828   4.129   3.747
 7226WAT     H122080   2.905   4.172   3.710
 7226WAT     H222081   2.823   4.046   3.701
 7227WAT      O22082   5.118   1.451   3.935
 7227WAT     H122083   5.134   1.404   3.853
 7227WAT     H222084   5.043   1.508   3.916
 7228WAT      O22085   6.131   0.957   3.821
 7228WAT     H122086   6.070   1.026   3.795
 7228WAT     H222087   6.083   0.875   3.804
 7229WAT      O22088   5.570   5.558   4.183
 7229WAT     H122089   5.524   5.630   4.141
 7229WAT     H222090   5.539   5.479   4.138
 7230WAT      O22091   7.273   3.692   0.748
 7230WAT     H122092   7.292   3.679   0.841
 7230WAT     H222093   7.346   3.649   0.702
 7231WAT      O22094   2.990   0.969   5.618
 7231WAT     H122095   2.996   0.922   5.701
 7231WAT     H222096   2.905   1.014   5.623
 7232WAT      O22097   2.682   6.956   5.784
 7232WAT     H122098   2.709   6.869   5.753
 7232WAT     H222099   2.664   7.005   5.703
 7233WAT      O22100   0.234   4.839   0.871
 7233WAT     H122101   0.296   4.869   0.805
 7233WAT     H222102   0.233   4.744   0.863
 7234WAT      O22103   7.126   1.314   2.549
 7234WAT     H122104   7.041   1.296   2.589
 7234WAT     H222105   7.116   1.401   2.510
 7235WAT      O22106   3.943   0.187   5.107
 7235WAT     H122107   3.958   0.229   5.023
 7235WAT     H222108   3.995   0.106   5.103
 7236WAT      O22109   0.223   6.278   3.662
 7236WAT     H122110   0.209   6.254   3.571
 7236WAT     H222111   0.245   6.371   3.659
 7237WAT      O22112   1.041   6.018   3.263
 7237WAT     H122113   1.119   5.973   3.231
 7237WAT     H222114   1.055   6.110   3.240
 7238WAT      O22115   5.909   1.833   1.288
 7238WAT     H122116   5.907   1.818   1.194
 7238WAT     H222117   5.895   1.746   1.326
 7239WAT      O22118   3.062   1.908   2.399
 7239WAT     H122119   3.094   1.892   2.310
 7239WAT     H222120   3.115   1.981   2.430
 7240WAT      O22121   3.190   2.311   2.358
 7240WAT     H122122   3.233   2.378   2.411
 7240WAT     H222123   3.098   2.339   2.353
 7241WAT      O22124   1.777   3.483   1.435
 7241WAT     H122125   1.831   3.422   1.385
 7241WAT     H222126   1.687   3.464   1.408
 7242WAT      O22127   4.028   5.205   1.295
 7242WAT     H122128   4.119   5.235   1.298
 7242WAT     H222129   4.026   5.130   1.355
 7243WAT      O22130   2.527   6.197   3.377
 7243WAT     H122131   2.562   6.226   3.461
 7243WAT     H222132   2.434   6.219   3.381
 7244WAT      O22133   0.834   7.070   1.722
 7244WAT     H122134   0.807   7.019   1.799
 7244WAT     H222135   0.920   7.105   1.746
 7245WAT      O22136   0.418   4.210   4.187
 7245WAT     H122137   0.391   4.119   4.198
 7245WAT     H222138   0.421   4.223   4.092
 7246WAT      O22139   4.930   3.298   3.693
 7246WAT     H122140   4.928   3.392   3.678
 7246WAT     H222141   4.963   3.260   3.611
 7247WAT      O22142   5.848   3.024   3.388
 7247WAT     H122143   5.883   3.048   3.303
 7247WAT     H222144   5.806   3.104   3.420
 7248WAT      O22145   4.330   0.624   1.500
 7248WAT     H122146   4.335   0.532   1.527
 7248WAT     H222147   4.379   0.672   1.566
 7249WAT      O22148   6.298   1.450   5.342
 7249WAT     H122149   6.210   1.486   5.353
 7249WAT     H222150   6.354   1.527   5.332
 7250WAT      O22151   4.392   0.510   4.239
 7250WAT     H122152   4.401   0.496   4.144
 7250WAT     H222153   4.462   0.457   4.277
 7251WAT      O22154   2.057   5.655   3.361
 7251WAT     H122155   2.146   5.676   3.335
 7251WAT     H222156   2.019   5.613   3.284
 7252WAT      O22157   1.584   3.819   5.123
 7252WAT     H122158   1.641   3.893   5.102
 7252WAT     H222159   1.508   3.830   5.065
 7253WAT      O22160   0.227   3.373   5.961
 7253WAT     H122161   0.315   3.354   5.994
 7253WAT     H222162   0.195   3.289   5.929
 7254WAT      O22163   3.375   0.052   2.022
 7254WAT     H122164   3.373   0.130   2.077
 7254WAT     H222165   3.466   0.024   2.023
 7255WAT      O22166   1.774   1.949   4.286
 7255WAT     H122167   1.746   1.869   4.241
 7255WAT     H222168   1.852   1.922   4.335
 7256WAT      O22169   1.957   3.327   4.567
 7256WAT     H122170   1.923   3.274   4.639
 7256WAT     H222171   1.885   3.331   4.504
 7257WAT      O22172   0.297   5.196   3.303
 7257WAT     H122173   0.340   5.185   3.388
 7257WAT     H222174   0.234   5.268   3.318
 7258WAT      O22175   0.950   2.061   5.597
 7258WAT     H122176   1.037   2.058   5.557
 7258WAT     H222177   0.906   2.133   5.552
 7259WAT      O22178   2.357   6.039   3.190
 7259WAT     H122179   2.405   5.962   3.219
 7259WAT     H222180   2.266   6.022   3.217
 7260WAT      O22181   0.373   4.594   0.807
 7260WAT     H122182   0.467   4.586   0.788
 7260WAT     H222183   0.331   4.582   0.722
 7261WAT      O22184   5.153   1.125   1.372
 7261WAT     H122185   5.245   1.106   1.352
 7261WAT     H222186   5.114   1.148   1.288
 7262WAT      O22187   7.256   3.220   0.716
 7262WAT     H122188   7.222   3.294   0.665
 7262WAT     H222189   7.251   3.146   0.656
 7263WAT      O22190   5.186   2.760   4.997
 7263WAT     H122191   5.214   2.807   4.918
 7263WAT     H222192   5.098   2.729   4.975
 7264WAT      O22193   4.541   6.767   1.664
 7264WAT     H122194   4.584   6.739   1.583
 7264WAT     H222195   4.450   6.737   1.655
 7265WAT      O22196   2.042   1.688   5.090
 7265WAT     H122197   2.093   1.744   5.148
 7265WAT     H222198   2.008   1.747   5.023
 7266WAT      O22199   0.774   3.347   0.753
 7266WAT     H122200   0.839   3.280   0.733
 7266WAT     H222201   0.759   3.338   0.847
 7267WAT      O22202   3.981   5.962   5.226
 7267WAT     H122203   3.976   5.964   5.130
 7267WAT     H222204   4.016   5.875   5.246
 7268WAT      O22205   0.189   6.662   4.574
 7268WAT     H122206   0.177   6.576   4.614
 7268WAT     H222207   0.230   6.643   4.489
 7269WAT      O22208   4.065   2.088   5.750
 7269WAT     H122209   4.138   2.104   5.809
 7269WAT     H222210   4.074   2.155   5.682
 7270WAT      O22211   3.551   2.729   1.518
 7270WAT     H122212   3.490   2.656   1.524
 7270WAT     H222213   3.546   2.757   1.426
 7271WAT      O22214   7.082   7.184   0.541
 7271WAT     H122215   6.994   7.182   0.504
 7271WAT     H222216   7.075   7.134   0.623
 7272WAT      O22217   1.428   0.681   5.197
 7272WAT     H122218   1.413   0.642   5.111
 7272WAT     H222219   1.459   0.609   5.251
 7273WAT      O22220   6.379   1.360   0.487
 7273WAT     H122221   6.414   1.395   0.405
 7273WAT     H222222   6.330   1.282   0.462
 7274WAT      O22223   5.182   0.196   2.561
 7274WAT     H122224   5.124   0.137   2.512
 7274WAT     H222225   5.239   0.234   2.495
 7275WAT      O22226   7.090   5.945   0.171
 7275WAT     H122227   7.091   5.925   0.078
 7275WAT     H222228   7.009   5.905   0.203
 7276WAT      O22229   4.257   2.817   6.070
 7276WAT     H122230   4.342   2.788   6.038
 7276WAT     H222231   4.277   2.868   6.148
 7277WAT      O22232   3.949   7.149   5.445
 7277WAT     H122233   4.005   7.190   5.379
 7277WAT     H222234   3.934   7.060   5.413
 7278WAT      O22235   3.609   5.321   0.549
 7278WAT     H122236   3.604   5.301   0.642
 7278WAT     H222237   3.523   5.295   0.515
 7279WAT      O22238   0.661   2.947   1.329
 7279WAT     H122239   0.609   3.006   1.274
 7279WAT     H222240   0.623   2.861   1.315
 7280WAT      O22241   0.898   6.292   5.181
 7280WAT     H122242   0.907   6.322   5.271
 7280WAT     H222243   0.875   6.199   5.188
 7281WAT      O22244   0.008   3.070   1.074
 7281WAT     H122245  -0.035   3.050   0.992
 7281WAT     H222246   0.094   3.103   1.049
 7282WAT      O22247   0.341   5.510   5.113
 7282WAT     H122248   0.361   5.601   5.092
 7282WAT     H222249   0.419   5.478   5.158
 7283WAT      O22250   5.339   4.269   4.019
 7283WAT     H122251   5.261   4.252   3.966
 7283WAT     H222252   5.405   4.298   3.957
 7284WAT      O22253   1.836   2.422   0.420
 7284WAT     H122254   1.824   2.483   0.492
 7284WAT     H222255   1.783   2.346   0.444
 7285WAT      O22256   6.432   4.577   2.682
 7285WAT     H122257   6.463   4.547   2.596
 7285WAT     H222258   6.397   4.498   2.724
 7286WAT      O22259   3.802   3.363   5.229
 7286WAT     H122260   3.848   3.352   5.146
 7286WAT     H222261   3.812   3.455   5.251
 7287WAT      O22262   4.673   0.286   3.604
 7287WAT     H122263   4.694   0.223   3.673
 7287WAT     H222264   4.671   0.234   3.524
 7288WAT      O22265   3.905   5.777   3.492
 7288WAT     H122266   3.914   5.822   3.408
 7288WAT     H222267   3.820   5.734   3.487
 7289WAT      O22268   7.134   0.466   5.569
 7289WAT     H122269   7.091   0.490   5.487
 7289WAT     H222270   7.128   0.370   5.571
 7290WAT      O22271   3.736   4.839   4.739
 7290WAT     H122272   3.701   4.751   4.731
 7290WAT     H222273   3.698   4.887   4.665
 7291WAT      O22274   4.415   6.219   5.302
 7291WAT     H122275   4.493   6.169   5.279
 7291WAT     H222276   4.404   6.282   5.230
 7292WAT      O22277   0.034   4.921   0.522
 7292WAT     H122278   0.006   5.008   0.493
 7292WAT     H222279  -0.042   4.884   0.566
 7293WAT      O22280   3.629   3.215   2.567
 7293WAT     H122281   3.701   3.235   2.627
 7293WAT     H222282   3.634   3.283   2.500
 7294WAT      O22283   6.897   4.902   3.974
 7294WAT     H122284   6.974   4.950   3.943
 7294WAT     H222285   6.933   4.820   4.009
 7295WAT      O22286   7.363   5.277   4.532
 7295WAT     H122287   7.341   5.256   4.441
 7295WAT     H222288   7.333   5.367   4.544
 7296WAT      O22289   7.116   5.036   4.239
 7296WAT     H122290   7.117   4.952   4.194
 7296WAT     H222291   7.024   5.054   4.256
 7297WAT      O22292   4.370   0.617   1.060
 7297WAT     H122293   4.449   0.665   1.082
 7297WAT     H222294   4.381   0.594   0.967
 7298WAT      O22295   4.636   4.299   5.145
 7298WAT     H122296   4.677   4.244   5.078
 7298WAT     H222297   4.613   4.237   5.215
 7299WAT      O22298   7.185   5.094   6.026
 7299WAT     H122299   7.200   5.181   6.065
 7299WAT     H222300   7.186   5.034   6.101
 7300WAT      O22301   2.233   5.819   4.297
 7300WAT     H122302   2.251   5.771   4.378
 7300WAT     H222303   2.304   5.794   4.238
 7301WAT      O22304   0.874   0.629   4.486
 7301WAT     H122305   0.937   0.602   4.553
 7301WAT     H222306   0.810   0.557   4.483
 7302WAT      O22307   2.794   5.514   4.177
 7302WAT     H122308   2.765   5.441   4.122
 7302WAT     H222309   2.875   5.484   4.217
 7303WAT      O22310   6.628   4.318   2.835
 7303WAT     H122311   6.670   4.231   2.838
 7303WAT     H222312   6.537   4.299   2.813
 7304WAT      O22313   1.027   7.028   4.914
 7304WAT     H122314   0.995   6.978   4.838
 7304WAT     H222315   0.965   7.007   4.984
 7305WAT      O22316   2.546   2.188   0.457
 7305WAT     H122317   2.595   2.151   0.383
 7305WAT     H222318   2.455   2.182   0.430
 7306WAT      O22319   0.547   5.639   6.098
 7306WAT     H122320   0.472   5.651   6.039
 7306WAT     H222321   0.623   5.637   6.040
 7307WAT      O22322   4.312   5.282   3.476
 7307WAT     H122323   4.352   5.195   3.475
 7307WAT     H222324   4.284   5.296   3.385
 7308WAT      O22325   4.338   2.829   4.201
 7308WAT     H122326   4.340   2.887   4.125
 7308WAT     H222327   4.428   2.828   4.233
 7309WAT      O22328   2.211   1.234   4.869
 7309WAT     H122329   2.287   1.200   4.917
 7309WAT     H222330   2.157   1.275   4.937
 7310WAT      O22331   0.838   4.744   4.579
 7310WAT     H122332   0.796   4.690   4.512
 7310WAT     H222333   0.794   4.720   4.660
 7311WAT      O22334   4.294   3.962   5.758
 7311WAT     H122335   4.355   3.892   5.783
 7311WAT     H222336   4.267   3.939   5.669
 7312WAT      O22337   3.857   6.777   2.885
 7312WAT     H122338   3.937   6.817   2.918
 7312WAT     H222339   3.863   6.685   2.912
 7313WAT      O22340   0.586   5.310   5.273
 7313WAT     H122341   0.569   5.217   5.260
 7313WAT     H222342   0.611   5.342   5.186
 7314WAT      O22343   3.914   7.148   5.132
 7314WAT     H122344   3.886   7.065   5.170
 7314WAT     H222345   3.928   7.129   5.040
 7315WAT      O22346   6.675   5.366   4.436
 7315WAT     H122347   6.630   5.341   4.355
 7315WAT     H222348   6.706   5.455   4.419
 7316WAT      O22349   1.641   5.302   1.463
 7316WAT     H122350   1.717   5.244   1.449
 7316WAT     H222351   1.573   5.244   1.499
 7317WAT      O22352   4.939   0.338   0.739
 7317WAT     H122353   4.995   0.337   0.661
 7317WAT     H222354   4.935   0.430   0.765
 7318WAT      O22355   3.254   2.378   3.992
 7318WAT     H122356   3.261   2.355   4.084
 7318WAT     H222357   3.234   2.472   3.992
 7319WAT      O22358   6.220   2.788   4.549
 7319WAT     H122359   6.235   2.736   4.470
 7319WAT     H222360   6.297   2.845   4.555
 7320WAT      O22361   4.597   3.534   6.196
 7320WAT     H122362   4.652   3.610   6.215
 7320WAT     H222363   4.516   3.569   6.161
 7321WAT      O22364   1.759   1.530   2.879
 7321WAT     H122365   1.788   1.608   2.927
 7321WAT     H222366   1.776   1.551   2.787
 7322WAT      O22367   4.119   6.648   4.980
 7322WAT     H122368   4.157   6.606   5.057
 7322WAT     H222369   4.138   6.589   4.907
 7323WAT      O22370   3.262   6.669   5.356
 7323WAT     H122371   3.296   6.657   5.445
 7323WAT     H222372   3.334   6.711   5.309
 7324WAT      O22373   0.173   5.124   2.690
 7324WAT     H122374   0.195   5.142   2.782
 7324WAT     H222375   0.188   5.030   2.680
 7325WAT      O22376   2.767   0.807   5.766
 7325WAT     H122377   2.719   0.889   5.766
 7325WAT     H222378   2.786   0.789   5.858
 7326WAT      O22379   5.422   0.006   3.382
 7326WAT     H122380   5.357   0.026   3.315
 7326WAT     H222381   5.503  -0.012   3.334
 7327WAT      O22382   4.885   4.672   1.518
 7327WAT     H122383   4.812   4.728   1.545
 7327WAT     H222384   4.846   4.608   1.459
 7328WAT      O22385   2.311   0.954   0.977
 7328WAT     H122386   2.308   1.041   0.936
 7328WAT     H222387   2.389   0.912   0.940
 7329WAT      O22388   4.883   6.333   0.743
 7329WAT     H122389   4.816   6.395   0.773
 7329WAT     H222390   4.942   6.386   0.690
 7330WAT      O22391   1.957   0.216   1.206
 7330WAT     H122392   1.867   0.199   1.180
 7330WAT     H222393   1.956   0.306   1.239
 7331WAT      O22394   7.453   3.404   3.259
 7331WAT     H122395   7.380   3.342   3.250
 7331WAT     H222396   7.432   3.475   3.198
 7332WAT      O22397   7.301   1.639   2.880
 7332WAT     H122398   7.231   1.704   2.889
 7332WAT     H222399   7.338   1.656   2.793
 7333WAT      O22400   0.707   6.452   2.220
 7333WAT     H122401   0.673   6.390   2.285
 7333WAT     H222402   0.773   6.403   2.172
 7334WAT      O22403   4.687   3.138   4.135
 7334WAT     H122404   4.602   3.095   4.135
 7334WAT     H222405   4.695   3.175   4.048
 7335WAT      O22406   5.107   0.350   0.941
 7335WAT     H122407   5.037   0.322   0.882
 7335WAT     H222408   5.102   0.289   1.015
 7336WAT      O22409   1.506   4.868   3.752
 7336WAT     H122410   1.452   4.830   3.682
 7336WAT     H222411   1.482   4.819   3.830
 7337WAT      O22412   6.087   3.826   4.015
 7337WAT     H122413   6.085   3.836   4.110
 7337WAT     H222414   6.126   3.908   3.984
 7338WAT      O22415   5.959   6.386   0.698
 7338WAT     H122416   5.892   6.349   0.755
 7338WAT     H222417   5.918   6.391   0.612
 7339WAT      O22418   0.473   4.622   1.333
 7339WAT     H122419   0.539   4.571   1.379
 7339WAT     H222420   0.477   4.589   1.243
 7340WAT      O22421   2.664   2.490   0.190
 7340WAT     H122422   2.586   2.538   0.162
 7340WAT     H222423   2.655   2.404   0.147
 7341WAT      O22424   3.644   5.290   2.733
 7341WAT     H122425   3.662   5.245   2.650
 7341WAT     H222426   3.691   5.239   2.799
 7342WAT      O22427   5.457   6.129   5.597
 7342WAT     H122428   5.381   6.098   5.646
 7342WAT     H222429   5.449   6.088   5.512
 7343WAT      O22430   1.262   6.898   3.366
 7343WAT     H122431   1.170   6.910   3.342
 7343WAT     H222432   1.293   6.986   3.389
 7344WAT      O22433   5.474   3.160   2.886
 7344WAT     H122434   5.393   3.205   2.909
 7344WAT     H222435   5.458   3.068   2.907
 7345WAT      O22436   2.882   3.000   4.956
 7345WAT     H122437   2.945   3.050   5.008
 7345WAT     H222438   2.868   3.054   4.878
 7346WAT      O22439   4.967   3.624   3.828
 7346WAT     H122440   5.062   3.619   3.817
 7346WAT     H222441   4.954   3.618   3.923
 7347WAT      O22442   5.569   6.393   3.459
 7347WAT     H122443   5.530   6.374   3.544
 7347WAT     H222444   5.495   6.407   3.400
 7348WAT      O22445   2.222   5.266   0.327
 7348WAT     H122446   2.228   5.352   0.286
 7348WAT     H222447   2.313   5.245   0.350
 7349WAT      O22448   4.060   3.965   3.459
 7349WAT     H122449   4.142   3.981   3.412
 7349WAT     H222450   4.050   4.042   3.516
 7350WAT      O22451   4.409   4.381   0.690
 7350WAT     H122452   4.332   4.374   0.633
 7350WAT     H222453   4.373   4.392   0.778
 7351WAT      O22454   0.654   2.650   1.448
 7351WAT     H122455   0.587   2.588   1.419
 7351WAT     H222456   0.737   2.605   1.433
 7352WAT      O22457   1.362   3.883   3.617
 7352WAT     H122458   1.435   3.940   3.589
 7352WAT     H222459   1.371   3.805   3.563
 7353WAT      O22460   3.182   6.352   4.777
 7353WAT     H122461   3.185   6.418   4.708
 7353WAT     H222462   3.255   6.293   4.757
 7354WAT      O22463   2.329   1.268   2.064
 7354WAT     H122464   2.275   1.192   2.085
 7354WAT     H222465   2.408   1.232   2.026
 7355WAT      O22466   5.647   2.439   2.567
 7355WAT     H122467   5.600   2.424   2.485
 7355WAT     H222468   5.594   2.394   2.633
 7356WAT      O22469   0.718   1.937   4.636
 7356WAT     H122470   0.814   1.945   4.635
 7356WAT     H222471   0.701   1.854   4.679
 7357WAT      O22472   7.598   3.523   1.037
 7357WAT     H122473   7.638   3.599   0.996
 7357WAT     H222474   7.546   3.483   0.967
 7358WAT      O22475   4.181   0.287   1.090
 7358WAT     H122476   4.269   0.291   1.128
 7358WAT     H222477   4.148   0.377   1.095
 7359WAT      O22478   6.992   5.646   2.514
 7359WAT     H122479   7.056   5.677   2.450
 7359WAT     H222480   7.014   5.554   2.528
 7360WAT      O22481   1.771   0.020   0.577
 7360WAT     H122482   1.714  -0.002   0.651
 7360WAT     H222483   1.793  -0.065   0.538
 7361WAT      O22484   5.392   0.475   0.882
 7361WAT     H122485   5.312   0.521   0.857
 7361WAT     H222486   5.432   0.532   0.949
 7362WAT      O22487   7.627   2.574   5.643
 7362WAT     H122488   7.668   2.619   5.570
 7362WAT     H222489   7.618   2.484   5.613
 7363WAT      O22490   1.945   4.507   2.401
 7363WAT     H122491   2.014   4.573   2.399
 7363WAT     H222492   1.992   4.423   2.400
 7364WAT      O22493   5.522   0.608   4.440
 7364WAT     H122494   5.602   0.591   4.490
 7364WAT     H222495   5.552   0.624   4.351
 7365WAT      O22496   4.655   6.975   2.117
 7365WAT     H122497   4.649   7.006   2.027
 7365WAT     H222498   4.582   7.016   2.162
 7366WAT      O22499   5.627   6.752   0.099
 7366WAT     H122500   5.647   6.718   0.012
 7366WAT     H222501   5.555   6.813   0.084
 7367WAT      O22502   0.140   4.145   4.613
 7367WAT     H122503   0.162   4.150   4.520
 7367WAT     H222504   0.045   4.160   4.615
 7368WAT      O22505   1.344   0.410   0.298
 7368WAT     H122506   1.258   0.370   0.306
 7368WAT     H222507   1.405   0.337   0.300
 7369WAT      O22508   0.561   5.936   3.558
 7369WAT     H122509   0.573   6.000   3.628
 7369WAT     H222510   0.648   5.922   3.522
 7370WAT      O22511   1.110   0.874   5.174
 7370WAT     H122512   1.033   0.923   5.203
 7370WAT     H222513   1.110   0.884   5.079
 7371WAT      O22514   3.477   6.458   3.163
 7371WAT     H122515   3.560   6.420   3.191
 7371WAT     H222516   3.426   6.384   3.131
 7372WAT      O22517   2.583   0.101   3.456
 7372WAT     H122518   2.545   0.019   3.425
 7372WAT     H222519   2.659   0.075   3.508
 7373WAT      O22520   6.306   6.254   4.341
 7373WAT     H122521   6.261   6.312   4.280
 7373WAT     H222522   6.243   6.240   4.412
 7374WAT      O22523   7.611   3.978   3.010
 7374WAT     H122524   7.552   4.023   3.070
 7374WAT     H222525   7.698   3.996   3.044
 7375WAT      O22526   3.290   4.525   2.348
 7375WAT     H122527   3.306   4.612   2.309
 7375WAT     H222528   3.371   4.504   2.393
 7376WAT      O22529   0.927   0.178   0.490
 7376WAT     H122530   0.835   0.202   0.477
 7376WAT     H222531   0.924   0.096   0.540
 7377WAT      O22532   4.951   2.405   0.243
 7377WAT     H122533   5.017   2.336   0.233
 7377WAT     H222534   4.877   2.375   0.189
 7378WAT      O22535   5.168   6.851   5.369
 7378WAT     H122536   5.121   6.798   5.433
 7378WAT     H222537   5.101   6.877   5.306
 7379WAT      O22538   3.040   1.623   4.398
 7379WAT     H122539   3.059   1.612   4.305
 7379WAT     H222540   3.120   1.659   4.436
 7380WAT      O22541   0.456   3.769   2.248
 7380WAT     H122542   0.360   3.777   2.247
 7380WAT     H222543   0.484   3.805   2.164
 7381WAT      O22544   3.819   4.548   6.155
 7381WAT     H122545   3.785   4.632   6.125
 7381WAT     H222546   3.756   4.519   6.221
 7382WAT      O22547   1.393   1.638   1.418
 7382WAT     H122548   1.440   1.714   1.384
 7382WAT     H222549   1.312   1.673   1.454
 7383WAT      O22550   6.157   5.812   1.666
 7383WAT     H122551   6.093   5.824   1.595
 7383WAT     H222552   6.105   5.783   1.741
 7384WAT      O22553   4.334   2.954   2.409
 7384WAT     H122554   4.298   3.037   2.377
 7384WAT     H222555   4.376   2.915   2.332
 7385WAT      O22556   7.579   5.099   2.374
 7385WAT     H122557   7.596   5.008   2.351
 7385WAT     H222558   7.542   5.138   2.295
 7386WAT      O22559   6.512   5.289   4.213
 7386WAT     H122560   6.537   5.364   4.159
 7386WAT     H222561   6.485   5.222   4.151
 7387WAT      O22562   2.510   6.681   0.220
 7387WAT     H122563   2.516   6.775   0.202
 7387WAT     H222564   2.417   6.662   0.221
 7388WAT      O22565   5.697   3.339   3.120
 7388WAT     H122566   5.704   3.394   3.199
 7388WAT     H222567   5.726   3.396   3.049
 7389WAT      O22568   4.527   3.512   1.911
 7389WAT     H122569   4.467   3.587   1.903
 7389WAT     H222570   4.500   3.453   1.841
 7390WAT      O22571   7.120   5.474   4.557
 7390WAT     H122572   7.163   5.556   4.536
 7390WAT     H222573   7.084   5.443   4.474
 7391WAT      O22574   6.724   6.289   3.808
 7391WAT     H122575   6.646   6.317   3.857
 7391WAT     H222576   6.689   6.248   3.729
 7392WAT      O22577   4.426   1.980   5.423
 7392WAT     H122578   4.355   2.020   5.372
 7392WAT     H222579   4.386   1.903   5.464
 7393WAT      O22580   1.379   6.209   1.731
 7393WAT     H122581   1.425   6.127   1.752
 7393WAT     H222582   1.350   6.197   1.641
 7394WAT      O22583   0.435   4.579   1.065
 7394WAT     H122584   0.517   4.533   1.048
 7394WAT     H222585   0.395   4.590   0.978
 7395WAT      O22586   1.214   2.196   4.883
 7395WAT     H122587   1.240   2.116   4.929
 7395WAT     H222588   1.263   2.265   4.926
 7396WAT      O22589   5.784   1.711   0.768
 7396WAT     H122590   5.790   1.617   0.752
 7396WAT     H222591   5.765   1.749   0.682
 7397WAT      O22592   6.233   5.484   3.898
 7397WAT     H122593   6.328   5.486   3.910
 7397WAT     H222594   6.207   5.397   3.928
 7398WAT      O22595   6.502   6.803   1.161
 7398WAT     H122596   6.559   6.778   1.234
 7398WAT     H222597   6.562   6.843   1.097
 7399WAT      O22598   4.853   5.243   3.693
 7399WAT     H122599   4.889   5.321   3.650
 7399WAT     H222600   4.853   5.176   3.625
 7400WAT      O22601   2.630   5.035   0.818
 7400WAT     H122602   2.690   4.970   0.855
 7400WAT     H222603   2.545   4.991   0.816
 7401WAT      O22604   4.433   2.721   5.660
 7401WAT     H122605   4.378   2.739   5.584
 7401WAT     H222606   4.521   2.711   5.623
 7402WAT      O22607   6.228   4.545   5.311
 7402WAT     H122608   6.229   4.619   5.251
 7402WAT     H222609   6.162   4.486   5.275
 7403WAT      O22610   4.379   3.909   2.395
 7403WAT     H122611   4.374   3.838   2.459
 7403WAT     H222612   4.388   3.865   2.311
 7404WAT      O22613   3.187   7.009   0.452
 7404WAT     H122614   3.194   6.923   0.492
 7404WAT     H222615   3.260   7.013   0.390
 7405WAT      O22616   5.032   6.557   3.411
 7405WAT     H122617   5.038   6.469   3.374
 7405WAT     H222618   4.945   6.589   3.385
 7406WAT      O22619   6.688   2.839   0.513
 7406WAT     H122620   6.678   2.866   0.422
 7406WAT     H222621   6.622   2.890   0.560
 7407WAT      O22622   6.945   4.155   3.880
 7407WAT     H122623   6.974   4.154   3.789
 7407WAT     H222624   6.853   4.129   3.877
 7408WAT      O22625   2.578   6.351   3.094
 7408WAT     H122626   2.623   6.432   3.117
 7408WAT     H222627   2.494   6.379   3.058
 7409WAT      O22628   6.826   4.496   4.829
 7409WAT     H122629   6.735   4.491   4.857
 7409WAT     H222630   6.828   4.567   4.765
 7410WAT      O22631   4.661   0.976   1.792
 7410WAT     H122632   4.626   1.064   1.803
 7410WAT     H222633   4.651   0.957   1.698
 7411WAT      O22634   6.255   3.363   4.699
 7411WAT     H122635   6.199   3.291   4.671
 7411WAT     H222636   6.320   3.371   4.629
 7412WAT      O22637   3.394   2.026   3.867
 7412WAT     H122638   3.300   2.043   3.879
 7412WAT     H222639   3.397   1.944   3.816
 7413WAT      O22640   2.740   3.648   1.438
 7413WAT     H122641   2.674   3.709   1.470
 7413WAT     H222642   2.691   3.588   1.381
 7414WAT      O22643   7.249   7.138   1.011
 7414WAT     H122644   7.309   7.130   1.085
 7414WAT     H222645   7.289   7.205   0.954
 7415WAT      O22646   1.694   1.070   1.343
 7415WAT     H122647   1.756   1.138   1.369
 7415WAT     H222648   1.660   1.036   1.426
 7416WAT      O22649   2.876   6.441   4.695
 7416WAT     H122650   2.806   6.387   4.658
 7416WAT     H222651   2.956   6.393   4.675
 7417WAT      O22652   6.254   1.650   0.642
 7417WAT     H122653   6.214   1.566   0.664
 7417WAT     H222654   6.199   1.685   0.572
 7418WAT      O22655   5.770   5.260   2.958
 7418WAT     H122656   5.848   5.215   2.990
 7418WAT     H222657   5.711   5.190   2.930
 7419WAT      O22658   0.064   6.376   2.051
 7419WAT     H122659  -0.013   6.321   2.051
 7419WAT     H222660   0.038   6.454   2.002
 7420WAT      O22661   0.837   3.361   2.539
 7420WAT     H122662   0.883   3.403   2.611
 7420WAT     H222663   0.814   3.433   2.479
 7421WAT      O22664   3.693   2.422   3.674
 7421WAT     H122665   3.695   2.362   3.599
 7421WAT     H222666   3.636   2.378   3.738
 7422WAT      O22667   6.089   6.241   3.994
 7422WAT     H122668   6.129   6.212   3.912
 7422WAT     H222669   6.033   6.169   4.021
 7423WAT      O22670   3.346   4.576   0.093
 7423WAT     H122671   3.343   4.487   0.058
 7423WAT     H222672   3.378   4.564   0.183
 7424WAT      O22673   4.611   2.293   4.290
 7424WAT     H122674   4.688   2.320   4.240
 7424WAT     H222675   4.630   2.203   4.317
 7425WAT      O22676   7.179   2.209   1.411
 7425WAT     H122677   7.249   2.273   1.429
 7425WAT     H222678   7.110   2.261   1.371
 7426WAT      O22679   5.448   0.086   5.852
 7426WAT     H122680   5.477   0.089   5.761
 7426WAT     H222681   5.352   0.087   5.846
 7427WAT      O22682   1.434   6.006   2.294
 7427WAT     H122683   1.343   6.003   2.323
 7427WAT     H222684   1.438   5.945   2.220
 7428WAT      O22685   1.542   5.823   5.592
 7428WAT     H122686   1.507   5.905   5.626
 7428WAT     H222687   1.546   5.837   5.497
 7429WAT      O22688   3.043   1.501   1.219
 7429WAT     H122689   3.040   1.531   1.128
 7429WAT     H222690   2.954   1.474   1.238
 7430WAT      O22691   6.445   0.132   2.353
 7430WAT     H122692   6.359   0.090   2.363
 7430WAT     H222693   6.505   0.059   2.333
 7431WAT      O22694   2.038   2.083   4.508
 7431WAT     H122695   2.011   2.169   4.539
 7431WAT     H222696   1.983   2.021   4.556
 7432WAT      O22697   6.137   3.034   5.140
 7432WAT     H122698   6.145   3.129   5.131
 7432WAT     H222699   6.184   2.999   5.064
 7433WAT      O22700   4.956   2.933   2.907
 7433WAT     H122701   4.899   2.867   2.867
 7433WAT     H222702   5.045   2.898   2.895
 7434WAT      O22703   6.127   5.379   5.135
 7434WAT     H122704   6.052   5.352   5.081
 7434WAT     H222705   6.087   5.424   5.209
 7435WAT      O22706   1.395   4.083   5.184
 7435WAT     H122707   1.318   4.114   5.137
 7435WAT     H222708   1.466   4.090   5.121
 7436WAT      O22709   0.796   1.735   1.295
 7436WAT     H122710   0.852   1.784   1.236
 7436WAT     H222711   0.800   1.645   1.263
 7437WAT      O22712   1.403   5.240   4.155
 7437WAT     H122713   1.387   5.150   4.128
 7437WAT     H222714   1.318   5.283   4.146
 7438WAT      O22715   0.766   3.458   1.619
 7438WAT     H122716   0.737   3.542   1.655
 7438WAT     H222717   0.704   3.440   1.548
 7439WAT      O22718   6.825   1.273   3.192
 7439WAT     H122719   6.915   1.283   3.161
 7439WAT     H222720   6.773   1.264   3.112
 7440WAT      O22721   2.695   4.170   5.409
 7440WAT     H122722   2.629   4.238   5.391
 7440WAT     H222723   2.763   4.185   5.344
 7441WAT      O22724   5.682   6.132   0.609
 7441WAT     H122725   5.695   6.144   0.704
 7441WAT     H222726   5.603   6.182   0.590
 7442WAT      O22727   4.444   2.516   3.008
 7442WAT     H122728   4.352   2.543   3.003
 7442WAT     H222729   4.458   2.462   2.931
 7443WAT      O22730   1.329   0.182   4.681
 7443WAT     H122731   1.266   0.152   4.615
 7443WAT     H222732   1.414   0.178   4.638
 7444WAT      O22733   5.774   1.378   2.426
 7444WAT     H122734   5.733   1.392   2.340
 7444WAT     H222735   5.739   1.450   2.480
 7445WAT      O22736   6.164   6.280   0.078
 7445WAT     H122737   6.083   6.300   0.032
 7445WAT     H222738   6.141   6.287   0.171
 7446WAT      O22739   1.812   5.974   4.799
 7446WAT     H122740   1.870   5.920   4.746
 7446WAT     H222741   1.818   5.937   4.887
 7447WAT      O22742   3.289   2.578   2.428
 7447WAT     H122743   3.273   2.588   2.522
 7447WAT     H222744   3.384   2.570   2.421
 7448WAT      O22745   5.363   2.924   3.006
 7448WAT     H122746   5.442   2.931   3.059
 7448WAT     H222747   5.292   2.922   3.070
 7449WAT      O22748   3.485   1.846   5.738
 7449WAT     H122749   3.399   1.881   5.761
 7449WAT     H222750   3.531   1.838   5.822
 7450WAT      O22751   5.803   3.608   3.578
 7450WAT     H122752   5.775   3.653   3.658
 7450WAT     H222753   5.826   3.678   3.517
 7451WAT      O22754   2.317   3.238   1.676
 7451WAT     H122755   2.299   3.332   1.687
 7451WAT     H222756   2.289   3.218   1.587
 7452WAT      O22757   5.064   3.935   5.726
 7452WAT     H122758   5.006   3.878   5.676
 7452WAT     H222759   5.023   4.021   5.723
 7453WAT      O22760   3.434   0.485   4.196
 7453WAT     H122761   3.437   0.399   4.239
 7453WAT     H222762   3.458   0.468   4.105
 7454WAT      O22763   3.842   5.815   1.567
 7454WAT     H122764   3.898   5.768   1.629
 7454WAT     H222765   3.889   5.896   1.550
 7455WAT      O22766   0.638   0.874   1.186
 7455WAT     H122767   0.646   0.968   1.174
 7455WAT     H222768   0.728   0.842   1.183
 7456WAT      O22769   3.187   4.128   6.208
 7456WAT     H122770   3.152   4.217   6.205
 7456WAT     H222771   3.244   4.122   6.131
 7457WAT      O22772   5.330   3.974   5.766
 7457WAT     H122773   5.238   3.970   5.742
 7457WAT     H222774   5.356   3.882   5.774
 7458WAT      O22775   4.658   0.833   5.851
 7458WAT     H122776   4.591   0.772   5.818
 7458WAT     H222777   4.611   0.915   5.866
 7459WAT      O22778   2.383   1.130   5.543
 7459WAT     H122779   2.407   1.037   5.551
 7459WAT     H222780   2.365   1.142   5.450
 7460WAT      O22781   0.667   6.022   1.485
 7460WAT     H122782   0.581   6.060   1.465
 7460WAT     H222783   0.659   5.990   1.575
 7461WAT      O22784   5.296   7.081   5.312
 7461WAT     H122785   5.251   7.004   5.346
 7461WAT     H222786   5.333   7.053   5.229
 7462WAT      O22787   1.296   6.356   3.053
 7462WAT     H122788   1.315   6.262   3.057
 7462WAT     H222789   1.243   6.366   2.973
 7463WAT      O22790   0.750   2.016   3.626
 7463WAT     H122791   0.748   2.050   3.537
 7463WAT     H222792   0.667   1.969   3.635
 7464WAT      O22793   7.455   5.641   0.397
 7464WAT     H122794   7.526   5.576   0.393
 7464WAT     H222795   7.454   5.680   0.310
 7465WAT      O22796   6.389   4.527   1.917
 7465WAT     H122797   6.450   4.578   1.863
 7465WAT     H222798   6.312   4.583   1.926
 7466WAT      O22799   3.694   6.558   6.165
 7466WAT     H122800   3.788   6.543   6.150
 7466WAT     H222801   3.654   6.547   6.079
 7467WAT      O22802   7.105   0.395   4.239
 7467WAT     H122803   7.166   0.462   4.271
 7467WAT     H222804   7.019   0.427   4.263
 7468WAT      O22805   6.605   2.910   0.245
 7468WAT     H122806   6.654   2.956   0.178
 7468WAT     H222807   6.521   2.889   0.204
 7469WAT      O22808   3.399   4.162   1.512
 7469WAT     H122809   3.382   4.087   1.454
 7469WAT     H222810   3.492   4.180   1.499
 7470WAT      O22811   1.369   2.190   4.495
 7470WAT     H122812   1.370   2.106   4.450
 7470WAT     H222813   1.278   2.217   4.494
 7471WAT      O22814   2.543   5.250   1.454
 7471WAT     H122815   2.507   5.337   1.438
 7471WAT     H222816   2.477   5.205   1.507
 7472WAT      O22817   0.016   0.120   3.100
 7472WAT     H122818  -0.021   0.206   3.082
 7472WAT     H222819  -0.053   0.059   3.079
 7473WAT      O22820   3.352   5.353   1.493
 7473WAT     H122821   3.330   5.412   1.565
 7473WAT     H222822   3.373   5.270   1.535
 7474WAT      O22823   4.940   2.199   2.333
 7474WAT     H122824   4.924   2.289   2.362
 7474WAT     H222825   4.853   2.166   2.310
 7475WAT      O22826   0.424   2.926   3.140
 7475WAT     H122827   0.459   2.843   3.173
 7475WAT     H222828   0.457   2.931   3.050
 7476WAT      O22829   4.321   0.342   1.571
 7476WAT     H122830   4.411   0.323   1.544
 7476WAT     H222831   4.268   0.279   1.524
 7477WAT      O22832   4.912   3.732   5.578
 7477WAT     H122833   4.819   3.751   5.585
 7477WAT     H222834   4.921   3.691   5.492
 7478WAT      O22835   3.973   1.531   0.395
 7478WAT     H122836   3.924   1.501   0.319
 7478WAT     H222837   4.063   1.504   0.378
 7479WAT      O22838   6.783   1.945   0.703
 7479WAT     H122839   6.785   1.976   0.612
 7479WAT     H222840   6.829   2.014   0.752
 7480WAT      O22841   4.410   1.474   4.014
 7480WAT     H122842   4.323   1.510   4.001
 7480WAT     H222843   4.444   1.521   4.090
 7481WAT      O22844   0.829   6.765   2.712
 7481WAT     H122845   0.821   6.703   2.640
 7481WAT     H222846   0.840   6.850   2.669
 7482WAT      O22847   3.850   1.210   0.950
 7482WAT     H122848   3.763   1.194   0.912
 7482WAT     H222849   3.902   1.242   0.876
 7483WAT      O22850   5.040   5.393   0.622
 7483WAT     H122851   5.107   5.386   0.554
 7483WAT     H222852   5.012   5.485   0.619
 7484WAT      O22853   7.020   4.581   5.489
 7484WAT     H122854   7.075   4.503   5.487
 7484WAT     H222855   6.987   4.590   5.399
 7485WAT      O22856   7.505   5.232   2.682
 7485WAT     H122857   7.497   5.158   2.742
 7485WAT     H222858   7.495   5.309   2.738
 7486WAT      O22859   3.929   1.100   4.668
 7486WAT     H122860   3.839   1.084   4.639
 7486WAT     H222861   3.921   1.122   4.761
 7487WAT      O22862   0.731   4.970   0.355
 7487WAT     H122863   0.814   4.936   0.389
 7487WAT     H222864   0.703   4.906   0.289
 7488WAT      O22865   6.009   0.783   4.606
 7488WAT     H122866   5.947   0.756   4.674
 7488WAT     H222867   5.994   0.721   4.534
 7489WAT      O22868   3.321   0.912   4.455
 7489WAT     H122869   3.263   0.983   4.482
 7489WAT     H222870   3.263   0.847   4.415
 7490WAT      O22871   7.197   4.371   5.427
 7490WAT     H122872   7.215   4.375   5.333
 7490WAT     H222873   7.264   4.312   5.462
 7491WAT      O22874   4.270   4.000   2.732
 7491WAT     H122875   4.284   3.916   2.688
 7491WAT     H222876   4.224   4.054   2.668
 7492WAT      O22877   2.493   1.786   5.456
 7492WAT     H122878   2.456   1.850   5.517
 7492WAT     H222879   2.519   1.839   5.380
 7493WAT      O22880   2.797   1.711   2.089
 7493WAT     H122881   2.783   1.792   2.138
 7493WAT     H222882   2.738   1.718   2.014
 7494WAT      O22883   4.236   2.465   6.104
 7494WAT     H122884   4.242   2.540   6.163
 7494WAT     H222885   4.149   2.473   6.064
 7495WAT      O22886   0.904   5.629   0.030
 7495WAT     H122887   0.892   5.722   0.051
 7495WAT     H222888   0.855   5.583   0.098
 7496WAT      O22889   7.248   5.615   4.151
 7496WAT     H122890   7.252   5.646   4.241
 7496WAT     H222891   7.169   5.560   4.148
 7497WAT      O22892   7.172   6.650   3.435
 7497WAT     H122893   7.136   6.565   3.459
 7497WAT     H222894   7.130   6.671   3.351
 7498WAT      O22895   2.993   5.442   5.285
 7498WAT     H122896   3.040   5.518   5.252
 7498WAT     H222897   3.036   5.367   5.244
 7499WAT      O22898   3.208   1.826   1.720
 7499WAT     H122899   3.301   1.830   1.739
 7499WAT     H222900   3.178   1.916   1.728
 7500WAT      O22901   5.110   0.568   0.131
 7500WAT     H122902   5.059   0.648   0.142
 7500WAT     H222903   5.197   0.590   0.162
 7501WAT      O22904   0.515   6.447   1.954
 7501WAT     H122905   0.554   6.423   2.038
 7501WAT     H222906   0.582   6.498   1.909
 7502WAT      O22907   4.231   6.167   5.036
 7502WAT     H122908   4.295   6.223   5.081
 7502WAT     H222909   4.282   6.092   5.006
 7503WAT      O22910   6.441   3.496   5.340
 7503WAT     H122911   6.519   3.539   5.303
 7503WAT     H222912   6.371   3.516   5.278
 7504WAT      O22913   0.340   4.293   5.065
 7504WAT     H122914   0.264   4.331   5.022
 7504WAT     H222915   0.308   4.208   5.098
 7505WAT      O22916   4.868   2.987   3.199
 7505WAT     H122917   4.915   3.069   3.216
 7505WAT     H222918   4.906   2.954   3.118
 7506WAT      O22919   6.792   5.601   0.753
 7506WAT     H122920   6.831   5.538   0.813
 7506WAT     H222921   6.866   5.629   0.698
 7507WAT      O22922   2.092   3.330   0.548
 7507WAT     H122923   2.164   3.306   0.490
 7507WAT     H222924   2.084   3.256   0.608
 7508WAT      O22925   6.850   1.671   4.816
 7508WAT     H122926   6.906   1.724   4.760
 7508WAT     H222927   6.838   1.590   4.768
 7509WAT      O22928   0.881   4.326   3.846
 7509WAT     H122929   0.857   4.299   3.757
 7509WAT     H222930   0.925   4.249   3.884
 7510WAT      O22931   2.844   1.763   1.186
 7510WAT     H122932   2.852   1.682   1.136
 7510WAT     H222933   2.791   1.820   1.130
 7511WAT      O22934   7.342   0.240   0.062
 7511WAT     H122935   7.326   0.326   0.103
 7511WAT     H222936   7.255   0.208   0.040
 7512WAT      O22937   5.401   6.472   3.700
 7512WAT     H122938   5.392   6.414   3.775
 7512WAT     H222939   5.318   6.519   3.696
 7513WAT      O22940   4.839   1.371   2.791
 7513WAT     H122941   4.924   1.369   2.748
 7513WAT     H222942   4.777   1.338   2.726
 7514WAT      O22943   7.162   2.856   5.791
 7514WAT     H122944   7.212   2.779   5.765
 7514WAT     H222945   7.145   2.902   5.709
 7515WAT      O22946   7.063   2.458   3.872
 7515WAT     H122947   7.066   2.427   3.782
 7515WAT     H222948   7.080   2.380   3.925
 7516WAT      O22949   3.116   6.101   1.601
 7516WAT     H122950   3.194   6.088   1.546
 7516WAT     H222951   3.051   6.042   1.563
 7517WAT      O22952   1.146   1.702   4.155
 7517WAT     H122953   1.135   1.612   4.125
 7517WAT     H222954   1.208   1.741   4.093
 7518WAT      O22955   2.952   6.177   3.865
 7518WAT     H122956   2.979   6.087   3.879
 7518WAT     H222957   2.885   6.172   3.796
 7519WAT      O22958   3.396   5.192   5.043
 7519WAT     H122959   3.425   5.144   4.965
 7519WAT     H222960   3.461   5.170   5.110
 7520WAT      O22961   2.802   2.816   5.793
 7520WAT     H122962   2.817   2.760   5.717
 7520WAT     H222963   2.881   2.805   5.846
 7521WAT      O22964   3.199   2.068   5.206
 7521WAT     H122965   3.272   2.017   5.172
 7521WAT     H222966   3.225   2.089   5.296
 7522WAT      O22967   0.244   4.491   4.026
 7522WAT     H122968   0.309   4.440   3.977
 7522WAT     H222969   0.250   4.579   3.988
 7523WAT      O22970   1.714   1.260   4.005
 7523WAT     H122971   1.657   1.252   4.082
 7523WAT     H222972   1.655   1.244   3.930
 7524WAT      O22973   7.535   4.683   1.432
 7524WAT     H122974   7.568   4.615   1.491
 7524WAT     H222975   7.600   4.753   1.439
 7525WAT      O22976   0.956   1.442   1.338
 7525WAT     H122977   0.972   1.434   1.432
 7525WAT     H222978   1.040   1.468   1.302
 7526WAT      O22979   4.240   4.807   2.221
 7526WAT     H122980   4.290   4.727   2.212
 7526WAT     H222981   4.178   4.805   2.147
 7527WAT      O22982   2.134   1.202   2.787
 7527WAT     H122983   2.104   1.290   2.765
 7527WAT     H222984   2.152   1.161   2.702
 7528WAT      O22985   6.461   3.225   1.845
 7528WAT     H122986   6.435   3.181   1.763
 7528WAT     H222987   6.551   3.252   1.829
 7529WAT      O22988   2.742   1.708   4.879
 7529WAT     H122989   2.766   1.756   4.800
 7529WAT     H222990   2.795   1.747   4.948
 7530WAT      O22991   4.460   2.213   0.716
 7530WAT     H122992   4.454   2.232   0.622
 7530WAT     H222993   4.372   2.185   0.740
 7531WAT      O22994   0.073   5.373   5.235
 7531WAT     H122995   0.072   5.292   5.184
 7531WAT     H222996   0.114   5.437   5.177
 7532WAT      O22997   1.784   6.518   5.555
 7532WAT     H122998   1.812   6.461   5.626
 7532WAT     H222999   1.724   6.580   5.597
 7533WAT      O23000   4.762   6.230   2.973
 7533WAT     H123001   4.669   6.252   2.969
 7533WAT     H223002   4.768   6.142   2.933
 7534WAT      O23003   0.613   4.060   1.715
 7534WAT     H123004   0.660   4.135   1.750
 7534WAT     H223005   0.521   4.078   1.734
 7535WAT      O23006   6.910   6.146   3.131
 7535WAT     H123007   6.988   6.102   3.097
 7535WAT     H223008   6.895   6.219   3.071
 7536WAT      O23009   3.720   3.133   3.668
 7536WAT     H123010   3.813   3.109   3.673
 7536WAT     H223011   3.674   3.051   3.656
 7537WAT      O23012   2.454   2.687   0.801
 7537WAT     H123013   2.462   2.680   0.706
 7537WAT     H223014   2.529   2.637   0.835
 7538WAT      O23015   7.479   2.301   0.860
 7538WAT     H123016   7.397   2.287   0.813
 7538WAT     H223017   7.528   2.363   0.806
 7539WAT      O23018   0.354   2.591   4.480
 7539WAT     H123019   0.440   2.560   4.452
 7539WAT     H223020   0.314   2.627   4.401
 7540WAT      O23021   2.042   5.108   6.072
 7540WAT     H123022   2.023   5.019   6.100
 7540WAT     H223023   1.964   5.137   6.025
 7541WAT      O23024   5.166   3.305   1.595
 7541WAT     H123025   5.254   3.287   1.629
 7541WAT     H223026   5.113   3.322   1.674
 7542WAT      O23027   1.062   7.134   1.051
 7542WAT     H123028   1.041   7.133   0.958
 7542WAT     H223029   1.067   7.227   1.073
 7543WAT      O23030   6.631   3.796   5.633
 7543WAT     H123031   6.550   3.816   5.680
 7543WAT     H223032   6.640   3.701   5.640
 7544WAT      O23033   0.635   4.014   5.224
 7544WAT     H123034   0.681   4.042   5.145
 7544WAT     H223035   0.559   3.966   5.192
 7545WAT      O23036   4.126   2.931   1.537
 7545WAT     H123037   4.172   2.932   1.453
 7545WAT     H223038   4.114   2.839   1.558
 7546WAT      O23039   5.264   6.912   4.436
 7546WAT     H123040   5.258   6.912   4.532
 7546WAT     H223041   5.175   6.894   4.406
 7547WAT      O23042   0.182   1.615   2.641
 7547WAT     H123043   0.245   1.547   2.663
 7547WAT     H223044   0.233   1.696   2.638
 7548WAT      O23045   1.977   2.829   4.339
 7548WAT     H123046   1.948   2.898   4.398
 7548WAT     H223047   2.040   2.872   4.281
 7549WAT      O23048   0.947   1.032   0.608
 7549WAT     H123049   1.011   0.981   0.559
 7549WAT     H223050   0.866   0.981   0.603
 7550WAT      O23051   5.571   4.424   5.472
 7550WAT     H123052   5.635   4.494   5.487
 7550WAT     H223053   5.623   4.344   5.467
 7551WAT      O23054   7.365   5.234   3.839
 7551WAT     H123055   7.294   5.281   3.795
 7551WAT     H223056   7.377   5.155   3.786
 7552WAT      O23057   4.404   3.369   1.318
 7552WAT     H123058   4.409   3.276   1.294
 7552WAT     H223059   4.318   3.378   1.360
 7553WAT      O23060   3.066   2.340   3.538
 7553WAT     H123061   3.152   2.303   3.556
 7553WAT     H223062   3.078   2.395   3.461
 7554WAT      O23063   5.767   4.253   5.748
 7554WAT     H123064   5.709   4.190   5.705
 7554WAT     H223065   5.709   4.306   5.802
 7555WAT      O23066   5.133   3.490   5.213
 7555WAT     H123067   5.151   3.485   5.119
 7555WAT     H223068   5.076   3.416   5.231
 7556WAT      O23069   1.594   6.342   0.376
 7556WAT     H123070   1.524   6.350   0.441
 7556WAT     H223071   1.553   6.364   0.293
 7557WAT      O23072   2.870   2.586   2.684
 7557WAT     H123073   2.887   2.504   2.639
 7557WAT     H223074   2.879   2.653   2.617
 7558WAT      O23075   6.863   6.718   0.534
 7558WAT     H123076   6.771   6.690   0.539
 7558WAT     H223077   6.910   6.655   0.588
 7559WAT      O23078   7.612   2.664   5.970
 7559WAT     H123079   7.622   2.597   6.037
 7559WAT     H223080   7.529   2.707   5.992
 7560WAT      O23081   2.619   6.405   4.251
 7560WAT     H123082   2.562   6.367   4.318
 7560WAT     H223083   2.643   6.331   4.195
 7561WAT      O23084   2.230   5.698   1.142
 7561WAT     H123085   2.194   5.667   1.059
 7561WAT     H223086   2.186   5.646   1.209
 7562WAT      O23087   5.383   4.465   1.124
 7562WAT     H123088   5.341   4.526   1.064
 7562WAT     H223089   5.477   4.473   1.106
 7563WAT      O23090   2.576   0.529   1.261
 7563WAT     H123091   2.505   0.593   1.253
 7563WAT     H223092   2.537   0.447   1.230
 7564WAT      O23093   0.505   0.049   2.518
 7564WAT     H123094   0.417   0.044   2.481
 7564WAT     H223095   0.556   0.094   2.452
 7565WAT      O23096   3.750   4.632   1.956
 7565WAT     H123097   3.736   4.614   2.049
 7565WAT     H223098   3.664   4.621   1.916
 7566WAT      O23099   3.635   1.680   5.577
 7566WAT     H123100   3.707   1.636   5.622
 7566WAT     H223101   3.585   1.723   5.646
 7567WAT      O23102   0.812   5.642   2.991
 7567WAT     H123103   0.870   5.598   2.928
 7567WAT     H223104   0.841   5.733   2.990
 7568WAT      O23105   1.018   2.453   3.731
 7568WAT     H123106   1.049   2.363   3.723
 7568WAT     H223107   0.924   2.445   3.750
 7569WAT      O23108   7.217   4.244   3.413
 7569WAT     H123109   7.252   4.207   3.332
 7569WAT     H223110   7.147   4.302   3.384
 7570WAT      O23111   6.297   0.698   3.620
 7570WAT     H123112   6.253   0.615   3.603
 7570WAT     H223113   6.258   0.760   3.558
 7571WAT      O23114   1.414   5.395   3.244
 7571WAT     H123115   1.480   5.463   3.262
 7571WAT     H223116   1.461   5.312   3.256
 7572WAT      O23117   7.142   6.963   6.073
 7572WAT     H123118   7.131   6.941   6.166
 7572WAT     H223119   7.221   6.916   6.046
 7573WAT      O23120   6.293   0.917   1.286
 7573WAT     H123121   6.250   0.908   1.371
 7573WAT     H223122   6.220   0.930   1.224
 7574WAT      O23123   6.113   0.635   3.977
 7574WAT     H123124   6.053   0.684   4.033
 7574WAT     H223125   6.086   0.656   3.888
 7575WAT      O23126   1.150   2.875   3.572
 7575WAT     H123127   1.148   2.925   3.653
 7575WAT     H223128   1.157   2.942   3.503
 7576WAT      O23129   1.124   2.630   2.725
 7576WAT     H123130   1.171   2.599   2.648
 7576WAT     H223131   1.135   2.725   2.723
 7577WAT      O23132   2.203   6.906   0.236
 7577WAT     H123133   2.130   6.914   0.175
 7577WAT     H223134   2.240   6.994   0.241
 7578WAT      O23135   0.115   2.601   1.791
 7578WAT     H123136   0.168   2.524   1.808
 7578WAT     H223137   0.173   2.675   1.809
 7579WAT      O23138   6.779   6.374   0.666
 7579WAT     H123139   6.746   6.291   0.630
 7579WAT     H223140   6.719   6.440   0.633
 7580WAT      O23141   7.316   4.976   2.103
 7580WAT     H123142   7.378   4.976   2.030
 7580WAT     H223143   7.325   4.888   2.141
 7581WAT      O23144   4.241   2.484   2.775
 7581WAT     H123145   4.335   2.475   2.761
 7581WAT     H223146   4.209   2.526   2.696
 7582WAT      O23147   7.159   5.887   1.481
 7582WAT     H123148   7.140   5.826   1.411
 7582WAT     H223149   7.103   5.860   1.554
 7583WAT      O23150   1.036   0.175   3.233
 7583WAT     H123151   1.055   0.170   3.326
 7583WAT     H223152   0.973   0.105   3.217
 7584WAT      O23153   0.913   6.429   4.938
 7584WAT     H123154   1.004   6.424   4.908
 7584WAT     H223155   0.912   6.382   5.021
 7585WAT      O23156   3.468   3.780   3.472
 7585WAT     H123157   3.531   3.744   3.535
 7585WAT     H223158   3.485   3.733   3.391
 7586WAT      O23159   0.612   7.096   4.431
 7586WAT     H123160   0.679   7.029   4.441
 7586WAT     H223161   0.614   7.119   4.338
 7587WAT      O23162   0.251   4.675   2.975
 7587WAT     H123163   0.185   4.618   3.015
 7587WAT     H223164   0.323   4.615   2.952
 7588WAT      O23165   4.173   3.483   1.910
 7588WAT     H123166   4.111   3.498   1.982
 7588WAT     H223167   4.172   3.564   1.860
 7589WAT      O23168   6.181   5.055   0.925
 7589WAT     H123169   6.149   5.070   0.836
 7589WAT     H223170   6.261   5.004   0.913
 7590WAT      O23171   6.424   6.669   3.158
 7590WAT     H123172   6.391   6.596   3.210
 7590WAT     H223173   6.346   6.714   3.126
 7591WAT      O23174   1.421   6.611   0.040
 7591WAT     H123175   1.469   6.658  -0.028
 7591WAT     H223176   1.328   6.626   0.020
 7592WAT      O23177   0.943   5.603   0.812
 7592WAT     H123178   0.956   5.682   0.865
 7592WAT     H223179   0.941   5.635   0.721
 7593WAT      O23180   6.930   1.889   5.018
 7593WAT     H123181   6.900   1.956   4.957
 7593WAT     H223182   6.908   1.806   4.975
 7594WAT      O23183   0.012   3.731   3.264
 7594WAT     H123184   0.049   3.807   3.219
 7594WAT     H223185   0.086   3.671   3.274
 7595WAT      O23186   1.618   2.235   1.400
 7595WAT     H123187   1.573   2.201   1.323
 7595WAT     H223188   1.554   2.228   1.470
 7596WAT      O23189   2.074   6.651   2.746
 7596WAT     H123190   2.159   6.694   2.741
 7596WAT     H223191   2.037   6.662   2.659
 7597WAT      O23192   3.228   6.152   3.679
 7597WAT     H123193   3.213   6.058   3.691
 7597WAT     H223194   3.194   6.171   3.592
 7598WAT      O23195   0.040   2.771   2.206
 7598WAT     H123196  -0.030   2.774   2.271
 7598WAT     H223197   0.003   2.815   2.129
 7599WAT      O23198   1.501   0.884   3.150
 7599WAT     H123199   1.552   0.956   3.112
 7599WAT     H223200   1.531   0.880   3.241
 7600WAT      O23201   0.964   5.820   4.156
 7600WAT     H123202   0.932   5.771   4.231
 7600WAT     H223203   1.023   5.759   4.110
 7601WAT      O23204   3.191   1.828   2.785
 7601WAT     H123205   3.170   1.768   2.713
 7601WAT     H223206   3.279   1.859   2.766
 7602WAT      O23207   1.227   5.584   5.745
 7602WAT     H123208   1.261   5.496   5.729
 7602WAT     H223209   1.242   5.631   5.662
 7603WAT      O23210   0.402   2.807   2.211
 7603WAT     H123211   0.456   2.776   2.137
 7603WAT     H223212   0.431   2.897   2.225
 7604WAT      O23213   4.367   3.203   3.458
 7604WAT     H123214   4.447   3.184   3.508
 7604WAT     H223215   4.363   3.298   3.455
 7605WAT      O23216   6.105   2.337   6.039
 7605WAT     H123217   6.179   2.384   6.000
 7605WAT     H223218   6.098   2.257   5.986
 7606WAT      O23219   4.468   0.696   1.802
 7606WAT     H123220   4.399   0.644   1.843
 7606WAT     H223221   4.422   0.761   1.749
 7607WAT      O23222   1.278   0.562   3.647
 7607WAT     H123223   1.244   0.628   3.707
 7607WAT     H223224   1.359   0.600   3.612
 7608WAT      O23225   2.115   0.958   1.605
 7608WAT     H123226   2.103   1.018   1.532
 7608WAT     H223227   2.191   0.905   1.582
 7609WAT      O23228   0.480   2.093   0.431
 7609WAT     H123229   0.450   2.040   0.357
 7609WAT     H223230   0.424   2.171   0.429
 7610WAT      O23231   6.010   4.965   0.261
 7610WAT     H123232   6.101   4.940   0.245
 7610WAT     H223233   5.977   4.995   0.177
 7611WAT      O23234   5.067   6.171   0.840
 7611WAT     H123235   5.007   6.236   0.803
 7611WAT     H223236   5.154   6.205   0.820
 7612WAT      O23237   5.080   1.228   4.377
 7612WAT     H123238   5.109   1.180   4.455
 7612WAT     H223239   4.997   1.269   4.404
 7613WAT      O23240   3.090   2.241   4.619
 7613WAT     H123241   3.064   2.213   4.531
 7613WAT     H223242   3.008   2.267   4.661
 7614WAT      O23243   2.315   1.971   6.219
 7614WAT     H123244   2.248   1.909   6.247
 7614WAT     H223245   2.277   2.015   6.144
 7615WAT      O23246   0.407   0.373   4.251
 7615WAT     H123247   0.363   0.455   4.229
 7615WAT     H223248   0.421   0.331   4.166
 7616WAT      O23249   0.800   4.276   3.575
 7616WAT     H123250   0.757   4.319   3.501
 7616WAT     H223251   0.846   4.201   3.536
 7617WAT      O23252   2.764   5.759   0.207
 7617WAT     H123253   2.792   5.828   0.146
 7617WAT     H223254   2.700   5.801   0.263
 7618WAT      O23255   4.484   5.059   6.113
 7618WAT     H123256   4.480   5.147   6.151
 7618WAT     H223257   4.463   5.072   6.021
 7619WAT      O23258   6.820   6.979   2.509
 7619WAT     H123259   6.800   7.054   2.453
 7619WAT     H223260   6.845   6.909   2.449
 7620WAT      O23261   4.242   3.377   5.269
 7620WAT     H123262   4.174   3.415   5.213
 7620WAT     H223263   4.305   3.447   5.282
 7621WAT      O23264   2.915   0.742   2.186
 7621WAT     H123265   2.852   0.696   2.130
 7621WAT     H223266   2.994   0.747   2.132
 7622WAT      O23267   4.255   3.309   2.865
 7622WAT     H123268   4.225   3.284   2.953
 7622WAT     H223269   4.184   3.364   2.830
 7623WAT      O23270   6.290   0.666   4.736
 7623WAT     H123271   6.211   0.696   4.691
 7623WAT     H223272   6.344   0.744   4.745
 7624WAT      O23273   3.908   3.263   0.124
 7624WAT     H123274   3.905   3.242   0.031
 7624WAT     H223275   3.900   3.178   0.168
 7625WAT      O23276   0.748   2.200   5.090
 7625WAT     H123277   0.707   2.178   5.006
 7625WAT     H223278   0.675   2.206   5.151
 7626WAT      O23279   0.374   5.893   0.300
 7626WAT     H123280   0.435   5.949   0.348
 7626WAT     H223281   0.374   5.811   0.348
 7627WAT      O23282   0.690   1.636   1.782
 7627WAT     H123283   0.640   1.609   1.705
 7627WAT     H223284   0.721   1.554   1.821
 7628WAT      O23285   1.347   2.285   2.032
 7628WAT     H123286   1.359   2.302   1.938
 7628WAT     H223287   1.382   2.197   2.045
 7629WAT      O23288   2.912   5.525   0.212
 7629WAT     H123289   2.848   5.595   0.201
 7629WAT     H223290   2.944   5.536   0.301
 7630WAT      O23291   5.565   0.514   2.135
 7630WAT     H123292   5.576   0.492   2.228
 7630WAT     H223293   5.501   0.451   2.103
 7631WAT      O23294   1.514   5.427   5.945
 7631WAT     H123295   1.556   5.363   5.888
 7631WAT     H223296   1.516   5.508   5.894
 7632WAT      O23297   4.852   1.369   5.757
 7632WAT     H123298   4.765   1.383   5.719
 7632WAT     H223299   4.870   1.276   5.740
 7633WAT      O23300   7.423   6.585   3.071
 7633WAT     H123301   7.337   6.599   3.031
 7633WAT     H223302   7.461   6.513   3.020
 7634WAT      O23303   7.143   1.147   5.012
 7634WAT     H123304   7.133   1.233   5.051
 7634WAT     H223305   7.056   1.123   4.983
 7635WAT      O23306   1.018   0.167   0.833
 7635WAT     H123307   0.970   0.101   0.783
 7635WAT     H223308   1.065   0.218   0.767
 7636WAT      O23309   1.938   4.605   0.969
 7636WAT     H123310   1.976   4.582   1.054
 7636WAT     H223311   1.953   4.699   0.961
 7637WAT      O23312   5.170   5.003   6.038
 7637WAT     H123313   5.166   5.097   6.022
 7637WAT     H223314   5.173   4.963   5.951
 7638WAT      O23315   3.288   4.554   5.708
 7638WAT     H123316   3.377   4.535   5.678
 7638WAT     H223317   3.298   4.630   5.766
 7639WAT      O23318   2.889   0.019   0.575
 7639WAT     H123319   2.961   0.070   0.611
 7639WAT     H223320   2.904   0.022   0.480
 7640WAT      O23321   5.961   5.176   0.479
 7640WAT     H123322   5.946   5.117   0.405
 7640WAT     H223323   5.880   5.226   0.486
 7641WAT      O23324   0.510   1.300   2.475
 7641WAT     H123325   0.443   1.314   2.408
 7641WAT     H223326   0.593   1.301   2.428
 7642WAT      O23327   0.845   3.592   5.494
 7642WAT     H123328   0.941   3.589   5.489
 7642WAT     H223329   0.823   3.681   5.470
 7643WAT      O23330   2.659   6.065   0.698
 7643WAT     H123331   2.702   6.065   0.612
 7643WAT     H223332   2.703   6.134   0.747
 7644WAT      O23333   0.976   5.999   3.679
 7644WAT     H123334   0.995   5.951   3.598
 7644WAT     H223335   0.894   5.962   3.710
 7645WAT      O23336   0.929   7.075   3.974
 7645WAT     H123337   0.896   7.140   3.912
 7645WAT     H223338   0.952   6.999   3.919
 7646WAT      O23339   7.241   6.192   1.069
 7646WAT     H123340   7.198   6.168   0.987
 7646WAT     H223341   7.222   6.285   1.080
 7647WAT      O23342   5.217   2.953   0.213
 7647WAT     H123343   5.155   3.000   0.157
 7647WAT     H223344   5.189   2.862   0.209
 7648WAT      O23345   6.543   2.399   3.088
 7648WAT     H123346   6.462   2.421   3.133
 7648WAT     H223347   6.604   2.467   3.114
 7649WAT      O23348   0.734   2.614   5.359
 7649WAT     H123349   0.709   2.541   5.415
 7649WAT     H223350   0.774   2.574   5.283
 7650WAT      O23351   5.833   2.300   3.746
 7650WAT     H123352   5.856   2.246   3.671
 7650WAT     H223353   5.897   2.276   3.814
 7651WAT      O23354   1.643   4.079   1.515
 7651WAT     H123355   1.679   3.996   1.549
 7651WAT     H223356   1.695   4.097   1.437
 7652WAT      O23357   2.061   4.655   4.930
 7652WAT     H123358   2.120   4.730   4.925
 7652WAT     H223359   2.113   4.581   4.896
 7653WAT      O23360   6.657   0.469   3.251
 7653WAT     H123361   6.729   0.457   3.313
 7653WAT     H223362   6.579   0.472   3.306
 7654WAT      O23363   5.360   1.020   4.264
 7654WAT     H123364   5.294   1.073   4.220
 7654WAT     H223365   5.319   0.934   4.276
 7655WAT      O23366   1.088   0.405   1.413
 7655WAT     H123367   1.051   0.443   1.333
 7655WAT     H223368   1.097   0.312   1.393
 7656WAT      O23369   3.810   4.363   1.120
 7656WAT     H123370   3.840   4.274   1.137
 7656WAT     H223371   3.890   4.415   1.115
 7657WAT      O23372   2.447   1.222   3.375
 7657WAT     H123373   2.360   1.224   3.333
 7657WAT     H223374   2.508   1.208   3.303
 7658WAT      O23375   3.490   2.218   2.978
 7658WAT     H123376   3.404   2.177   2.985
 7658WAT     H223377   3.495   2.246   2.887
 7659WAT      O23378   5.225   1.109   0.799
 7659WAT     H123379   5.181   1.193   0.786
 7659WAT     H223380   5.268   1.092   0.715
 7660WAT      O23381   7.610   2.935   0.808
 7660WAT     H123382   7.539   2.908   0.751
 7660WAT     H223383   7.659   2.855   0.826
 7661WAT      O23384   1.116   5.561   4.527
 7661WAT     H123385   1.182   5.560   4.597
 7661WAT     H223386   1.161   5.522   4.452
 7662WAT      O23387   5.913   3.350   5.572
 7662WAT     H123388   5.885   3.433   5.610
 7662WAT     H223389   5.839   3.323   5.517
 7663WAT      O23390   3.042   4.469   5.949
 7663WAT     H123391   3.042   4.445   5.856
 7663WAT     H223392   2.950   4.487   5.969
 7664WAT      O23393   6.172   2.368   2.734
 7664WAT     H123394   6.135   2.443   2.688
 7664WAT     H223395   6.264   2.389   2.745
 7665WAT      O23396   4.209   3.033   3.989
 7665WAT     H123397   4.234   2.961   3.932
 7665WAT     H223398   4.284   3.093   3.986
 7666WAT      O23399   4.117   1.052   2.387
 7666WAT     H123400   4.051   1.027   2.451
 7666WAT     H223401   4.200   1.025   2.426
 7667WAT      O23402   7.025   5.934   6.022
 7667WAT     H123403   7.095   5.968   6.077
 7667WAT     H223404   6.951   5.922   6.081
 7668WAT      O23405   6.117   6.171   1.044
 7668WAT     H123406   6.151   6.087   1.075
 7668WAT     H223407   6.193   6.229   1.043
 7669WAT      O23408   3.424   5.049   2.031
 7669WAT     H123409   3.432   5.007   2.116
 7669WAT     H223410   3.386   4.982   1.974
 7670WAT      O23411   5.253   1.569   0.762
 7670WAT     H123412   5.331   1.534   0.806
 7670WAT     H223413   5.286   1.631   0.698
 7671WAT      O23414   4.859   1.598   0.539
 7671WAT     H123415   4.803   1.520   0.537
 7671WAT     H223416   4.938   1.573   0.491
 7672WAT      O23417   3.756   4.631   3.047
 7672WAT     H123418   3.782   4.566   3.112
 7672WAT     H223419   3.660   4.625   3.044
 7673WAT      O23420   1.164   2.235   4.080
 7673WAT     H123421   1.079   2.271   4.052
 7673WAT     H223422   1.228   2.285   4.031
 7674WAT      O23423   1.086   2.178   4.370
 7674WAT     H123424   1.007   2.230   4.359
 7674WAT     H223425   1.140   2.200   4.294
 7675WAT      O23426   4.036   3.567   2.153
 7675WAT     H123427   3.953   3.616   2.150
 7675WAT     H223428   4.011   3.480   2.182
 7676WAT      O23429   4.053   0.532   1.116
 7676WAT     H123430   4.025   0.579   1.038
 7676WAT     H223431   4.074   0.601   1.179
 7677WAT      O23432   5.094   6.211   4.441
 7677WAT     H123433   5.081   6.305   4.454
 7677WAT     H223434   5.156   6.186   4.509
 7678WAT      O23435   7.523   0.995   0.378
 7678WAT     H123436   7.559   0.922   0.327
 7678WAT     H223437   7.442   0.960   0.415
 7679WAT      O23438   4.917   0.051   4.099
 7679WAT     H123439   4.948   0.064   4.010
 7679WAT     H223440   4.852   0.121   4.112
 7680WAT      O23441   1.732   6.143   2.634
 7680WAT     H123442   1.710   6.195   2.556
 7680WAT     H223443   1.714   6.053   2.609
 7681WAT      O23444   1.188   2.113   0.096
 7681WAT     H123445   1.209   2.065   0.176
 7681WAT     H223446   1.101   2.149   0.112
 7682WAT      O23447   1.598   0.557   2.468
 7682WAT     H123448   1.547   0.615   2.412
 7682WAT     H223449   1.544   0.544   2.546
 7683WAT      O23450   5.162   0.617   0.899
 7683WAT     H123451   5.140   0.528   0.927
 7683WAT     H223452   5.083   0.668   0.916
 7684WAT      O23453   5.379   1.131   0.339
 7684WAT     H123454   5.291   1.162   0.315
 7684WAT     H223455   5.422   1.114   0.256
 7685WAT      O23456   6.557   6.558   4.235
 7685WAT     H123457   6.597   6.521   4.157
 7685WAT     H223458   6.465   6.530   4.230
 7686WAT      O23459   0.801   2.383   1.061
 7686WAT     H123460   0.896   2.383   1.062
 7686WAT     H223461   0.778   2.462   1.011
 7687WAT      O23462   4.464   1.083   0.703
 7687WAT     H123463   4.515   1.104   0.625
 7687WAT     H223464   4.409   1.009   0.676
 7688WAT      O23465   0.475   3.893   3.633
 7688WAT     H123466   0.526   3.837   3.575
 7688WAT     H223467   0.540   3.943   3.682
 7689WAT      O23468   5.747   2.576   4.657
 7689WAT     H123469   5.752   2.513   4.585
 7689WAT     H223470   5.695   2.648   4.623
 7690WAT      O23471   2.229   4.872   4.941
 7690WAT     H123472   2.227   4.937   4.871
 7690WAT     H223473   2.273   4.915   5.014
 7691WAT      O23474   6.681   6.826   0.125
 7691WAT     H123475   6.658   6.919   0.119
 7691WAT     H223476   6.735   6.810   0.048
 7692WAT      O23477   6.317   4.556   4.146
 7692WAT     H123478   6.401   4.541   4.103
 7692WAT     H223479   6.286   4.639   4.110
 7693WAT      O23480   6.538   6.436   0.174
 7693WAT     H123481   6.506   6.526   0.171
 7693WAT     H223482   6.476   6.391   0.231
 7694WAT      O23483   0.615   4.576   1.772
 7694WAT     H123484   0.538   4.534   1.810
 7694WAT     H223485   0.660   4.506   1.725
 7695WAT      O23486   6.600   2.241   1.828
 7695WAT     H123487   6.628   2.163   1.877
 7695WAT     H223488   6.557   2.205   1.750
 7696WAT      O23489   1.054   6.864   1.494
 7696WAT     H123490   1.147   6.886   1.503
 7696WAT     H223491   1.020   6.929   1.433
 7697WAT      O23492   5.376   0.167   1.219
 7697WAT     H123493   5.458   0.165   1.267
 7697WAT     H223494   5.397   0.130   1.134
 7698WAT      O23495   0.820   6.254   2.560
 7698WAT     H123496   0.829   6.159   2.551
 7698WAT     H223497   0.749   6.277   2.499
 7699WAT      O23498   0.273   0.730   0.937
 7699WAT     H123499   0.302   0.665   0.872
 7699WAT     H223500   0.342   0.729   1.003
 7700WAT      O23501   0.730   3.295   0.114
 7700WAT     H123502   0.657   3.343   0.075
 7700WAT     H223503   0.747   3.224   0.052
 7701WAT      O23504   6.666   4.175   0.103
 7701WAT     H123505   6.649   4.099   0.047
 7701WAT     H223506   6.724   4.230   0.051
 7702WAT      O23507   5.310   1.311   3.104
 7702WAT     H123508   5.234   1.255   3.117
 7702WAT     H223509   5.274   1.400   3.106
 7703WAT      O23510   0.855   6.428   2.771
 7703WAT     H123511   0.860   6.412   2.677
 7703WAT     H223512   0.763   6.452   2.786
 7704WAT      O23513   0.120   5.139   5.096
 7704WAT     H123514   0.053   5.088   5.050
 7704WAT     H223515   0.183   5.073   5.127
 7705WAT      O23516   0.523   2.455   0.467
 7705WAT     H123517   0.430   2.469   0.484
 7705WAT     H223518   0.525   2.383   0.403
 7706WAT      O23519   1.935   0.812   1.763
 7706WAT     H123520   1.999   0.853   1.705
 7706WAT     H223521   1.852   0.852   1.739
 7707WAT      O23522   4.830   4.552   0.645
 7707WAT     H123523   4.783   4.634   0.630
 7707WAT     H223524   4.800   4.494   0.574
 7708WAT      O23525   5.761   1.108   2.474
 7708WAT     H123526   5.711   1.149   2.404
 7708WAT     H223527   5.773   1.177   2.539
 7709WAT      O23528   4.226   0.662   5.855
 7709WAT     H123529   4.229   0.656   5.760
 7709WAT     H223530   4.148   0.613   5.881
 7710WAT      O23531   3.404   2.715   0.224
 7710WAT     H123532   3.443   2.731   0.139
 7710WAT     H223533   3.356   2.633   0.213
 7711WAT      O23534   3.635   7.178   0.237
 7711WAT     H123535   3.714   7.147   0.281
 7711WAT     H223536   3.637   7.273   0.248
 7712WAT      O23537   3.651   0.024   2.040
 7712WAT     H123538   3.705   0.076   1.980
 7712WAT     H223539   3.690   0.037   2.126
 7713WAT      O23540   3.782   4.730   1.384
 7713WAT     H123541   3.797   4.752   1.476
 7713WAT     H223542   3.742   4.644   1.387
 7714WAT      O23543   6.008   7.170   4.205
 7714WAT     H123544   5.918   7.201   4.208
 7714WAT     H223545   6.002   7.075   4.215
 7715WAT      O23546   2.656   6.804   3.723
 7715WAT     H123547   2.684   6.816   3.632
 7715WAT     H223548   2.732   6.832   3.774
 7716WAT      O23549   1.097   3.812   1.470
 7716WAT     H123550   1.105   3.768   1.555
 7716WAT     H223551   1.027   3.876   1.482
 7717WAT      O23552   6.475   6.165   4.163
 7717WAT     H123553   6.419   6.096   4.126
 7717WAT     H223554   6.424   6.201   4.235
 7718WAT      O23555   0.701   4.467   3.984
 7718WAT     H123556   0.682   4.540   3.925
 7718WAT     H223557   0.753   4.406   3.932
 7719WAT      O23558   1.219   1.299   3.758
 7719WAT     H123559   1.135   1.261   3.733
 7719WAT     H223560   1.261   1.323   3.675
 7720WAT      O23561   1.549   0.631   2.807
 7720WAT     H123562   1.530   0.724   2.790
 7720WAT     H223563   1.470   0.585   2.780
 7721WAT      O23564   2.970   2.649   2.053
 7721WAT     H123565   2.950   2.561   2.084
 7721WAT     H223566   3.018   2.690   2.125
 7722WAT      O23567   3.253   6.042   4.226
 7722WAT     H123568   3.335   6.070   4.185
 7722WAT     H223569   3.190   6.040   4.154
 7723WAT      O23570   5.117   7.102   6.195
 7723WAT     H123571   5.117   7.006   6.194
 7723WAT     H223572   5.197   7.127   6.149
 7724WAT      O23573   1.915   6.835   0.864
 7724WAT     H123574   1.869   6.875   0.790
 7724WAT     H223575   1.994   6.798   0.826
 7725WAT      O23576   1.771   5.476   2.939
 7725WAT     H123577   1.750   5.403   2.879
 7725WAT     H223578   1.700   5.539   2.925
 7726WAT      O23579   3.011   5.352   3.437
 7726WAT     H123580   2.991   5.271   3.390
 7726WAT     H223581   2.943   5.414   3.408
 7727WAT      O23582   4.634   5.980   3.821
 7727WAT     H123583   4.617   6.020   3.736
 7727WAT     H223584   4.712   6.025   3.854
 7728WAT      O23585   5.356   2.444   3.231
 7728WAT     H123586   5.349   2.351   3.254
 7728WAT     H223587   5.379   2.443   3.138
 7729WAT      O23588   2.645   2.536   5.319
 7729WAT     H123589   2.722   2.593   5.321
 7729WAT     H223590   2.579   2.582   5.370
 7730WAT      O23591   0.668   4.058   6.013
 7730WAT     H123592   0.679   4.124   5.944
 7730WAT     H223593   0.593   4.089   6.064
 7731WAT      O23594   5.322   5.738   1.038
 7731WAT     H123595   5.396   5.677   1.039
 7731WAT     H223596   5.280   5.725   0.953
 7732WAT      O23597   4.882   0.276   1.372
 7732WAT     H123598   4.828   0.216   1.423
 7732WAT     H223599   4.917   0.338   1.437
 7733WAT      O23600   2.216   3.173   1.963
 7733WAT     H123601   2.289   3.220   1.924
 7733WAT     H223602   2.191   3.108   1.897
 7734WAT      O23603   2.949   6.402   0.143
 7734WAT     H123604   2.956   6.493   0.115
 7734WAT     H223605   3.037   6.366   0.128
 7735WAT      O23606   5.101   2.790   3.661
 7735WAT     H123607   5.040   2.856   3.695
 7735WAT     H223608   5.111   2.812   3.569
 7736WAT      O23609   2.937   0.109   3.346
 7736WAT     H123610   2.938   0.044   3.276
 7736WAT     H223611   2.923   0.058   3.426
 7737WAT      O23612   0.648   4.474   4.772
 7737WAT     H123613   0.651   4.566   4.798
 7737WAT     H223614   0.705   4.468   4.696
 7738WAT      O23615   4.687   6.894   6.055
 7738WAT     H123616   4.687   6.899   5.960
 7738WAT     H223617   4.641   6.974   6.083
 7739WAT      O23618   5.629   0.050   0.059
 7739WAT     H123619   5.701   0.008   0.011
 7739WAT     H223620   5.591   0.111  -0.004
 7740WAT      O23621   0.718   6.935   4.197
 7740WAT     H123622   0.811   6.938   4.174
 7740WAT     H223623   0.672   6.937   4.113
 7741WAT      O23624   3.513   6.142   1.207
 7741WAT     H123625   3.550   6.171   1.123
 7741WAT     H223626   3.462   6.065   1.185
 7742WAT      O23627   5.395   4.014   3.078
 7742WAT     H123628   5.450   4.029   3.002
 7742WAT     H223629   5.305   4.017   3.044
 7743WAT      O23630   4.587   6.080   2.691
 7743WAT     H123631   4.561   6.156   2.639
 7743WAT     H223632   4.532   6.009   2.659
 7744WAT      O23633   6.417   0.847   5.118
 7744WAT     H123634   6.401   0.937   5.148
 7744WAT     H223635   6.446   0.801   5.197
 7745WAT      O23636   7.453   4.623   0.885
 7745WAT     H123637   7.527   4.617   0.946
 7745WAT     H223638   7.486   4.583   0.805
 7746WAT      O23639   4.657   4.022   3.534
 7746WAT     H123640   4.661   3.930   3.560
 7746WAT     H223641   4.738   4.060   3.567
 7747WAT      O23642   5.132   6.599   4.225
 7747WAT     H123643   5.142   6.693   4.208
 7747WAT     H223644   5.140   6.558   4.139
 7748WAT      O23645   7.153   4.629   0.756
 7748WAT     H123646   7.210   4.575   0.811
 7748WAT     H223647   7.176   4.604   0.666
 7749WAT      O23648   3.691   3.900   5.673
 7749WAT     H123649   3.709   3.946   5.591
 7749WAT     H223650   3.620   3.840   5.652
 7750WAT      O23651   2.457   5.184   0.414
 7750WAT     H123652   2.417   5.099   0.430
 7750WAT     H223653   2.468   5.222   0.502
 7751WAT      O23654   4.901   4.052   5.423
 7751WAT     H123655   4.816   4.094   5.416
 7751WAT     H223656   4.889   3.967   5.379
 7752WAT      O23657   6.327   1.175   5.661
 7752WAT     H123658   6.306   1.125   5.740
 7752WAT     H223659   6.295   1.263   5.680
 7753WAT      O23660   2.594   3.077   3.656
 7753WAT     H123661   2.683   3.070   3.689
 7753WAT     H223662   2.605   3.094   3.562
 7754WAT      O23663   0.143   0.717   5.286
 7754WAT     H123664   0.195   0.637   5.298
 7754WAT     H223665   0.052   0.687   5.287
 7755WAT      O23666   4.829   3.100   5.558
 7755WAT     H123667   4.861   3.026   5.508
 7755WAT     H223668   4.798   3.162   5.492
 7756WAT      O23669   4.041   5.346   3.492
 7756WAT     H123670   4.133   5.324   3.507
 7756WAT     H223671   4.018   5.298   3.413
 7757WAT      O23672   0.393   3.191   3.743
 7757WAT     H123673   0.423   3.245   3.670
 7757WAT     H223674   0.312   3.152   3.713
 7758WAT      O23675   0.854   6.693   3.298
 7758WAT     H123676   0.767   6.660   3.321
 7758WAT     H223677   0.847   6.716   3.205
 7759WAT      O23678   4.196   6.708   0.842
 7759WAT     H123679   4.233   6.634   0.793
 7759WAT     H223680   4.253   6.782   0.822
 7760WAT      O23681   6.674   3.871   6.028
 7760WAT     H123682   6.715   3.957   6.015
 7760WAT     H223683   6.580   3.889   6.033
 7761WAT      O23684   5.803   4.521   3.715
 7761WAT     H123685   5.894   4.498   3.735
 7761WAT     H223686   5.804   4.616   3.704
 7762WAT      O23687   0.814   0.188   4.385
 7762WAT     H123688   0.754   0.251   4.425
 7762WAT     H223689   0.777   0.103   4.406
 7763WAT      O23690   1.391   5.985   1.216
 7763WAT     H123691   1.302   5.955   1.234
 7763WAT     H223692   1.397   5.986   1.120
 7764WAT      O23693   6.404   3.740   2.634
 7764WAT     H123694   6.465   3.669   2.653
 7764WAT     H223695   6.347   3.704   2.565
 7765WAT      O23696   0.594   0.089   0.900
 7765WAT     H123697   0.648   0.124   0.829
 7765WAT     H223698   0.525   0.039   0.856
 7766WAT      O23699   2.848   0.304   3.615
 7766WAT     H123700   2.836   0.385   3.664
 7766WAT     H223701   2.893   0.330   3.535
 7767WAT      O23702   0.050   1.588   5.917
 7767WAT     H123703   0.057   1.496   5.891
 7767WAT     H223704   0.032   1.634   5.835
 7768WAT      O23705   1.648   2.659   0.817
 7768WAT     H123706   1.563   2.682   0.779
 7768WAT     H223707   1.633   2.658   0.911
 7769WAT      O23708   1.875   0.655   3.825
 7769WAT     H123709   1.793   0.650   3.874
 7769WAT     H223710   1.854   0.621   3.738
 7770WAT      O23711   3.135   5.236   5.194
 7770WAT     H123712   3.138   5.149   5.235
 7770WAT     H223713   3.204   5.234   5.128
 7771WAT      O23714   5.095   2.002   5.731
 7771WAT     H123715   5.004   2.031   5.727
 7771WAT     H223716   5.142   2.076   5.770
 7772WAT      O23717   0.865   2.735   1.077
 7772WAT     H123718   0.845   2.789   1.154
 7772WAT     H223719   0.783   2.732   1.028
 7773WAT      O23720   2.382   3.625   1.086
 7773WAT     H123721   2.472   3.645   1.059
 7773WAT     H223722   2.370   3.674   1.167
 7774WAT      O23723   3.554   3.300   2.968
 7774WAT     H123724   3.643   3.335   2.966
 7774WAT     H223725   3.509   3.344   2.896
 7775WAT      O23726   0.345   1.658   0.181
 7775WAT     H123727   0.316   1.584   0.234
 7775WAT     H223728   0.371   1.619   0.097
 7776WAT      O23729   6.480   0.165   2.848
 7776WAT     H123730   6.536   0.098   2.808
 7776WAT     H223731   6.494   0.243   2.795
 7777WAT      O23732   6.958   2.798   5.354
 7777WAT     H123733   7.018   2.868   5.382
 7777WAT     H223734   6.914   2.834   5.277
 7778WAT      O23735   6.215   0.555   5.024
 7778WAT     H123736   6.133   0.507   5.032
 7778WAT     H223737   6.192   0.633   4.974
 7779WAT      O23738   3.042   1.623   5.765
 7779WAT     H123739   3.072   1.648   5.677
 7779WAT     H223740   2.974   1.557   5.749
 7780WAT      O23741   3.385   5.660   4.623
 7780WAT     H123742   3.345   5.740   4.656
 7780WAT     H223743   3.339   5.643   4.540
 7781WAT      O23744   0.936   3.274   4.335
 7781WAT     H123745   0.970   3.186   4.322
 7781WAT     H223746   0.913   3.278   4.428
 7782WAT      O23747   1.121   3.536   3.646
 7782WAT     H123748   1.131   3.562   3.554
 7782WAT     H223749   1.201   3.488   3.666
 7783WAT      O23750   1.477   3.427   2.041
 7783WAT     H123751   1.542   3.369   2.081
 7783WAT     H223752   1.523   3.509   2.024
 7784WAT      O23753   4.439   5.632   0.785
 7784WAT     H123754   4.370   5.651   0.849
 7784WAT     H223755   4.421   5.542   0.758
 7785WAT      O23756   5.306   2.571   1.046
 7785WAT     H123757   5.249   2.561   0.970
 7785WAT     H223758   5.358   2.491   1.048
 7786WAT      O23759   2.310   2.758   1.704
 7786WAT     H123760   2.384   2.699   1.690
 7786WAT     H223761   2.242   2.725   1.646
 7787WAT      O23762   1.795   0.038   3.223
 7787WAT     H123763   1.712   0.083   3.212
 7787WAT     H223764   1.854   0.105   3.258
 7788WAT      O23765   5.704   4.993   2.285
 7788WAT     H123766   5.650   5.071   2.277
 7788WAT     H223767   5.735   4.975   2.197
 7789WAT      O23768   4.725   1.337   0.554
 7789WAT     H123769   4.780   1.266   0.587
 7789WAT     H223770   4.653   1.292   0.509
 7790WAT      O23771   7.127   5.128   0.778
 7790WAT     H123772   7.039   5.115   0.743
 7790WAT     H223773   7.181   5.064   0.731
 7791WAT      O23774   2.788   4.569   5.985
 7791WAT     H123775   2.802   4.548   6.077
 7791WAT     H223776   2.734   4.498   5.951
 7792WAT      O23777   2.785   5.999   0.455
 7792WAT     H123778   2.783   5.904   0.465
 7792WAT     H223779   2.877   6.020   0.435
 7793WAT      O23780   0.996   0.536   4.036
 7793WAT     H123781   0.977   0.443   4.021
 7793WAT     H223782   0.912   0.580   4.019
 7794WAT      O23783   7.112   4.356   4.470
 7794WAT     H123784   7.127   4.356   4.376
 7794WAT     H223785   7.047   4.288   4.484
 7795WAT      O23786   3.717   1.092   5.605
 7795WAT     H123787   3.777   1.129   5.669
 7795WAT     H223788   3.651   1.046   5.658
 7796WAT      O23789   3.559   6.622   2.229
 7796WAT     H123790   3.539   6.550   2.169
 7796WAT     H223791   3.505   6.695   2.198
 7797WAT      O23792   0.367   2.321   5.001
 7797WAT     H123793   0.288   2.362   4.967
 7797WAT     H223794   0.423   2.310   4.924
 7798WAT      O23795   5.578   2.206   4.669
 7798WAT     H123796   5.485   2.188   4.659
 7798WAT     H223797   5.620   2.119   4.670
 7799WAT      O23798   5.650   1.589   5.161
 7799WAT     H123799   5.643   1.577   5.067
 7799WAT     H223800   5.636   1.502   5.198
 7800WAT      O23801   3.189   1.077   0.623
 7800WAT     H123802   3.193   0.986   0.596
 7800WAT     H223803   3.124   1.117   0.565
 7801WAT      O23804   1.508   6.417   2.331
 7801WAT     H123805   1.441   6.399   2.265
 7801WAT     H223806   1.463   6.470   2.397
 7802WAT      O23807   2.602   2.375   4.850
 7802WAT     H123808   2.563   2.423   4.923
 7802WAT     H223809   2.673   2.325   4.890
 7803WAT      O23810   5.829   1.446   2.778
 7803WAT     H123811   5.815   1.506   2.705
 7803WAT     H223812   5.742   1.432   2.815
 7804WAT      O23813   0.887   1.034   4.862
 7804WAT     H123814   0.867   1.006   4.772
 7804WAT     H223815   0.914   1.125   4.854
 7805WAT      O23816   3.731   0.411   5.616
 7805WAT     H123817   3.825   0.420   5.599
 7805WAT     H223818   3.690   0.473   5.556
 7806WAT      O23819   4.280   1.065   0.096
 7806WAT     H123820   4.204   1.088   0.042
 7806WAT     H223821   4.351   1.054   0.033
 7807WAT      O23822   6.194   7.176   3.316
 7807WAT     H123823   6.165   7.086   3.306
 7807WAT     H223824   6.268   7.184   3.255
 7808WAT      O23825   3.875   0.989   1.087
 7808WAT     H123826   3.874   1.069   1.034
 7808WAT     H223827   3.961   0.951   1.070
 7809WAT      O23828   5.046   0.404   5.067
 7809WAT     H123829   5.077   0.424   4.978
 7809WAT     H223830   5.126   0.386   5.116
 7810WAT      O23831   5.849   4.340   4.328
 7810WAT     H123832   5.870   4.250   4.301
 7810WAT     H223833   5.886   4.395   4.259
 7811WAT      O23834   0.363   6.397   2.517
 7811WAT     H123835   0.362   6.472   2.577
 7811WAT     H223836   0.335   6.434   2.433
 7812WAT      O23837   6.606   6.619   1.651
 7812WAT     H123838   6.525   6.574   1.676
 7812WAT     H223839   6.669   6.549   1.637
 7813WAT      O23840   0.862   5.065   3.452
 7813WAT     H123841   0.915   5.054   3.374
 7813WAT     H223842   0.807   4.986   3.455
 7814WAT      O23843   1.725   2.971   4.777
 7814WAT     H123844   1.742   2.885   4.815
 7814WAT     H223845   1.656   3.008   4.832
 7815WAT      O23846   4.442   6.314   4.543
 7815WAT     H123847   4.472   6.241   4.489
 7815WAT     H223848   4.353   6.331   4.513
 7816WAT      O23849   1.380   4.155   2.528
 7816WAT     H123850   1.419   4.128   2.445
 7816WAT     H223851   1.409   4.246   2.539
 7817WAT      O23852   3.903   0.893   0.089
 7817WAT     H123853   3.950   0.846   0.020
 7817WAT     H223854   3.895   0.982   0.055
 7818WAT      O23855   5.413   3.299   3.553
 7818WAT     H123856   5.504   3.311   3.526
 7818WAT     H223857   5.366   3.371   3.511
 7819WAT      O23858   2.795   0.845   1.582
 7819WAT     H123859   2.719   0.788   1.589
 7819WAT     H223860   2.781   0.894   1.501
 7820WAT      O23861   6.826   1.515   2.440
 7820WAT     H123862   6.752   1.471   2.398
 7820WAT     H223863   6.898   1.504   2.378
 7821WAT      O23864   1.322   5.289   4.455
 7821WAT     H123865   1.348   5.374   4.418
 7821WAT     H223866   1.283   5.242   4.381
 7822WAT      O23867   3.716   5.221   4.134
 7822WAT     H123868   3.726   5.203   4.227
 7822WAT     H223869   3.629   5.189   4.112
 7823WAT      O23870   3.075   3.830   4.976
 7823WAT     H123871   3.056   3.900   4.913
 7823WAT     H223872   3.168   3.842   4.998
 7824WAT      O23873   1.116   5.635   4.032
 7824WAT     H123874   1.159   5.627   3.947
 7824WAT     H223875   1.106   5.545   4.062
 7825WAT      O23876   6.189   1.533   4.759
 7825WAT     H123877   6.132   1.511   4.686
 7825WAT     H223878   6.181   1.457   4.818
 7826WAT      O23879   2.653   4.765   4.228
 7826WAT     H123880   2.652   4.811   4.144
 7826WAT     H223881   2.591   4.812   4.282
 7827WAT      O23882   6.377   3.686   3.066
 7827WAT     H123883   6.301   3.635   3.037
 7827WAT     H223884   6.381   3.672   3.160
 7828WAT      O23885   3.204   4.961   3.219
 7828WAT     H123886   3.271   4.892   3.215
 7828WAT     H223887   3.228   5.022   3.149
 7829WAT      O23888   3.974   3.191   1.726
 7829WAT     H123889   3.959   3.212   1.818
 7829WAT     H223890   3.997   3.275   1.686
 7830WAT      O23891   2.087   6.875   3.161
 7830WAT     H123892   2.143   6.806   3.198
 7830WAT     H223893   2.136   6.906   3.085
 7831WAT      O23894   5.725   1.245   5.781
 7831WAT     H123895   5.775   1.210   5.708
 7831WAT     H223896   5.737   1.340   5.775
 7832WAT      O23897   5.963   5.997   6.172
 7832WAT     H123898   6.027   5.938   6.135
 7832WAT     H223899   5.904   5.941   6.222
 7833WAT      O23900   7.123   3.372   5.380
 7833WAT     H123901   7.084   3.458   5.362
 7833WAT     H223902   7.210   3.377   5.340
 7834WAT      O23903   1.594   3.046   0.056
 7834WAT     H123904   1.535   3.029  -0.017
 7834WAT     H223905   1.580   3.139   0.077
 7835WAT      O23906   3.066   1.747   5.497
 7835WAT     H123907   3.114   1.783   5.422
 7835WAT     H223908   2.976   1.739   5.467
 7836WAT      O23909   1.677   5.435   0.328
 7836WAT     H123910   1.770   5.457   0.322
 7836WAT     H223911   1.634   5.497   0.269
 7837WAT      O23912   1.753   0.818   3.532
 7837WAT     H123913   1.741   0.819   3.437
 7837WAT     H223914   1.778   0.728   3.552
 7838WAT      O23915   3.724   6.793   5.928
 7838WAT     H123916   3.637   6.830   5.943
 7838WAT     H223917   3.723   6.763   5.838
 7839WAT      O23918   3.808   0.125   5.399
 7839WAT     H123919   3.819   0.105   5.306
 7839WAT     H223920   3.804   0.220   5.403
 7840WAT      O23921   3.713   5.694   0.944
 7840WAT     H123922   3.657   5.747   1.001
 7840WAT     H223923   3.773   5.756   0.904
 7841WAT      O23924   6.173   1.164   0.420
 7841WAT     H123925   6.205   1.156   0.510
 7841WAT     H223926   6.082   1.135   0.424
 7842WAT      O23927   4.752   2.892   2.556
 7842WAT     H123928   4.693   2.901   2.631
 7842WAT     H223929   4.698   2.853   2.488
 7843WAT      O23930   3.335   0.005   0.800
 7843WAT     H123931   3.373   0.029   0.715
 7843WAT     H223932   3.402  -0.050   0.841
 7844WAT      O23933   1.193   2.970   5.461
 7844WAT     H123934   1.137   3.047   5.473
 7844WAT     H223935   1.204   2.962   5.367
 7845WAT      O23936   5.270   7.027   0.702
 7845WAT     H123937   5.296   7.113   0.671
 7845WAT     H223938   5.335   6.967   0.665
 7846WAT      O23939   4.011   3.968   0.870
 7846WAT     H123940   4.002   3.946   0.777
 7846WAT     H223941   4.093   3.928   0.896
 7847WAT      O23942   1.230   0.564   1.042
 7847WAT     H123943   1.145   0.545   1.004
 7847WAT     H223944   1.289   0.498   1.004
 7848WAT      O23945   1.122   0.883   4.895
 7848WAT     H123946   1.179   0.953   4.864
 7848WAT     H223947   1.033   0.917   4.884
 7849WAT      O23948   2.343   6.667   1.855
 7849WAT     H123949   2.437   6.650   1.857
 7849WAT     H223950   2.331   6.732   1.786
 7850WAT      O23951   4.189   2.162   1.878
 7850WAT     H123952   4.140   2.084   1.852
 7850WAT     H223953   4.122   2.225   1.903
 7851WAT      O23954   7.464   7.145   1.198
 7851WAT     H123955   7.533   7.085   1.168
 7851WAT     H223956   7.453   7.124   1.291
 7852WAT      O23957   1.982   2.050   2.842
 7852WAT     H123958   1.915   2.052   2.773
 7852WAT     H223959   2.024   2.136   2.837
 7853WAT      O23960   7.091   2.728   6.206
 7853WAT     H123961   7.158   2.661   6.197
 7853WAT     H223962   7.113   2.793   6.139
 7854WAT      O23963   7.058   5.882   0.514
 7854WAT     H123964   7.037   5.938   0.589
 7854WAT     H223965   7.024   5.929   0.438
 7855WAT      O23966   7.463   6.218   1.919
 7855WAT     H123967   7.376   6.203   1.882
 7855WAT     H223968   7.488   6.134   1.958
 7856WAT      O23969   2.868   3.933   2.626
 7856WAT     H123970   2.781   3.971   2.618
 7856WAT     H223971   2.853   3.838   2.627
 7857WAT      O23972   3.648   0.876   4.584
 7857WAT     H123973   3.654   0.794   4.536
 7857WAT     H223974   3.595   0.933   4.529
 7858WAT      O23975   1.121   6.943   4.178
 7858WAT     H123976   1.131   6.945   4.083
 7858WAT     H223977   1.106   6.850   4.198
 7859WAT      O23978   2.753   2.512   4.504
 7859WAT     H123979   2.836   2.557   4.492
 7859WAT     H223980   2.693   2.579   4.537
 7860WAT      O23981   3.502   3.095   1.429
 7860WAT     H123982   3.427   3.064   1.479
 7860WAT     H223983   3.479   3.078   1.337
 7861WAT      O23984   5.451   4.159   5.985
 7861WAT     H123985   5.368   4.189   6.023
 7861WAT     H223986   5.428   4.126   5.898
 7862WAT      O23987   0.955   0.378   5.883
 7862WAT     H123988   0.874   0.391   5.834
 7862WAT     H223989   1.003   0.461   5.871
 7863WAT      O23990   7.550   0.340   5.987
 7863WAT     H123991   7.540   0.255   5.943
 7863WAT     H223992   7.464   0.382   5.976
 7864WAT      O23993   2.243   6.783   2.466
 7864WAT     H123994   2.152   6.754   2.467
 7864WAT     H223995   2.286   6.725   2.403
 7865WAT      O23996   6.644   1.393   4.284
 7865WAT     H123997   6.553   1.363   4.289
 7865WAT     H223998   6.637   1.488   4.275
 7866WAT      O23999   4.644   0.768   2.035
 7866WAT     H124000   4.591   0.844   2.057
 7866WAT     H224001   4.602   0.731   1.957
 7867WAT      O24002   5.471   0.791   2.857
 7867WAT     H124003   5.531   0.787   2.783
 7867WAT     H224004   5.401   0.850   2.829
 7868WAT      O24005   7.150   1.536   4.873
 7868WAT     H124006   7.127   1.598   4.805
 7868WAT     H224007   7.207   1.472   4.830
 7869WAT      O24008   1.064   3.372   5.684
 7869WAT     H124009   0.988   3.415   5.724
 7869WAT     H224010   1.137   3.429   5.706
 7870WAT      O24011   5.318   3.266   5.077
 7870WAT     H124012   5.342   3.267   4.984
 7870WAT     H224013   5.223   3.264   5.076
 7871WAT      O24014   2.798   5.567   4.958
 7871WAT     H124015   2.862   5.518   4.907
 7871WAT     H224016   2.714   5.550   4.915
 7872WAT      O24017   5.573   1.269   3.412
 7872WAT     H124018   5.542   1.190   3.456
 7872WAT     H224019   5.662   1.282   3.444
 7873WAT      O24020   0.801   0.990   5.454
 7873WAT     H124021   0.779   1.080   5.431
 7873WAT     H224022   0.780   0.939   5.376
 7874WAT      O24023   1.963   0.810   0.220
 7874WAT     H124024   1.931   0.857   0.297
 7874WAT     H224025   2.041   0.859   0.192
 7875WAT      O24026   1.024   1.240   4.399
 7875WAT     H124027   0.975   1.285   4.331
 7875WAT     H224028   1.018   1.299   4.475
 7876WAT      O24029   0.336   4.255   0.919
 7876WAT     H124030   0.275   4.254   0.845
 7876WAT     H224031   0.405   4.315   0.891
 7877WAT      O24032   1.570   0.969   5.945
 7877WAT     H124033   1.596   1.056   5.913
 7877WAT     H224034   1.479   0.960   5.917
 7878WAT      O24035   6.993   0.861   0.364
 7878WAT     H124036   6.913   0.808   0.369
 7878WAT     H224037   7.026   0.848   0.275
 7879WAT      O24038   5.957   6.832   0.498
 7879WAT     H124039   5.891   6.898   0.520
 7879WAT     H224040   5.920   6.786   0.422
 7880WAT      O24041   3.353   3.227   4.048
 7880WAT     H124042   3.428   3.215   4.106
 7880WAT     H224043   3.345   3.144   4.001
 7881WAT      O24044   2.139   5.501   3.568
 7881WAT     H124045   2.078   5.506   3.495
 7881WAT     H224046   2.197   5.577   3.556
 7882WAT      O24047   2.201   1.036   2.119
 7882WAT     H124048   2.154   1.060   2.199
 7882WAT     H224049   2.136   1.044   2.049
 7883WAT      O24050   0.493   3.415   0.005
 7883WAT     H124051   0.513   3.432  -0.087
 7883WAT     H224052   0.477   3.321   0.009
 7884WAT      O24053   1.780   0.997   3.275
 7884WAT     H124054   1.779   0.938   3.199
 7884WAT     H224055   1.867   0.987   3.312
 7885WAT      O24056   2.663   0.245   2.453
 7885WAT     H124057   2.669   0.335   2.486
 7885WAT     H224058   2.583   0.245   2.400
 7886WAT      O24059   1.524   3.456   1.343
 7886WAT     H124060   1.445   3.421   1.384
 7886WAT     H224061   1.507   3.450   1.249
 7887WAT      O24062   4.208   6.685   2.305
 7887WAT     H124063   4.244   6.644   2.226
 7887WAT     H224064   4.148   6.752   2.272
 7888WAT      O24065   3.358   1.353   6.096
 7888WAT     H124066   3.393   1.264   6.093
 7888WAT     H224067   3.267   1.345   6.067
 7889WAT      O24068   1.850   0.125   3.780
 7889WAT     H124069   1.911   0.194   3.755
 7889WAT     H224070   1.907   0.051   3.803
 7890WAT      O24071   7.581   2.804   1.157
 7890WAT     H124072   7.654   2.801   1.095
 7890WAT     H224073   7.553   2.896   1.157
 7891WAT      O24074   5.205   4.352   3.777
 7891WAT     H124075   5.176   4.432   3.733
 7891WAT     H224076   5.262   4.309   3.713
 7892WAT      O24077   0.362   2.308   4.088
 7892WAT     H124078   0.305   2.297   4.012
 7892WAT     H224079   0.417   2.229   4.088
 7893WAT      O24080   5.292   5.981   1.677
 7893WAT     H124081   5.266   6.041   1.747
 7893WAT     H224082   5.368   6.025   1.636
 7894WAT      O24083   7.433   1.132   1.453
 7894WAT     H124084   7.510   1.188   1.452
 7894WAT     H224085   7.406   1.125   1.362
 7895WAT      O24086   4.557   4.417   2.018
 7895WAT     H124087   4.574   4.323   2.016
 7895WAT     H224088   4.565   4.445   1.927
 7896WAT      O24089   2.756   1.379   5.316
 7896WAT     H124090   2.823   1.311   5.324
 7896WAT     H224091   2.796   1.446   5.261
 7897WAT      O24092   5.710   6.730   5.914
 7897WAT     H124093   5.708   6.652   5.859
 7897WAT     H224094   5.645   6.713   5.982
 7898WAT      O24095   7.564   2.331   4.630
 7898WAT     H124096   7.470   2.349   4.627
 7898WAT     H224097   7.605   2.403   4.583
 7899WAT      O24098   4.645   4.939   1.810
 7899WAT     H124099   4.575   4.964   1.871
 7899WAT     H224100   4.650   4.844   1.816
 7900WAT      O24101   0.924   3.700   4.897
 7900WAT     H124102   0.918   3.732   4.807
 7900WAT     H224103   0.910   3.605   4.890
 7901WAT      O24104   0.405   2.720   4.995
 7901WAT     H124105   0.341   2.659   5.031
 7901WAT     H224106   0.372   2.741   4.908
 7902WAT      O24107   6.624   0.327   0.917
 7902WAT     H124108   6.642   0.398   0.855
 7902WAT     H224109   6.532   0.304   0.901
 7903WAT      O24110   2.949   1.777   0.324
 7903WAT     H124111   2.980   1.865   0.305
 7903WAT     H224112   2.869   1.768   0.272
 7904WAT      O24113   4.814   1.605   2.241
 7904WAT     H124114   4.799   1.513   2.264
 7904WAT     H224115   4.727   1.638   2.219
 7905WAT      O24116   4.319   0.982   2.557
 7905WAT     H124117   4.304   1.027   2.640
 7905WAT     H224118   4.326   0.889   2.581
 7906WAT      O24119   2.280   2.516   0.906
 7906WAT     H124120   2.258   2.533   0.997
 7906WAT     H224121   2.335   2.589   0.880
 7907WAT      O24122   4.603   2.491   2.314
 7907WAT     H124123   4.687   2.506   2.357
 7907WAT     H224124   4.574   2.579   2.289
 7908WAT      O24125   1.962   1.306   1.729
 7908WAT     H124126   2.032   1.334   1.670
 7908WAT     H224127   1.905   1.251   1.675
 7909WAT      O24128   4.994   2.391   5.555
 7909WAT     H124129   4.972   2.414   5.645
 7909WAT     H224130   4.923   2.333   5.526
 7910WAT      O24131   1.098   3.365   1.890
 7910WAT     H124132   1.191   3.373   1.870
 7910WAT     H224133   1.087   3.275   1.921
 7911WAT      O24134   0.882   2.137   0.078
 7911WAT     H124135   0.876   2.078   0.003
 7911WAT     H224136   0.844   2.088   0.151
 7912WAT      O24137   4.793   6.756   5.071
 7912WAT     H124138   4.787   6.787   4.981
 7912WAT     H224139   4.712   6.786   5.112
 7913WAT      O24140   2.778   2.289   6.043
 7913WAT     H124141   2.706   2.352   6.039
 7913WAT     H224142   2.781   2.263   6.135
 7914WAT      O24143   4.745   0.749   5.403
 7914WAT     H124144   4.718   0.659   5.383
 7914WAT     H224145   4.785   0.781   5.322
 7915WAT      O24146   1.722   0.755   6.107
 7915WAT     H124147   1.703   0.694   6.036
 7915WAT     H224148   1.695   0.840   6.074
 7916WAT      O24149   1.296   6.398   2.143
 7916WAT     H124150   1.324   6.415   2.054
 7916WAT     H224151   1.234   6.325   2.136
 7917WAT      O24152   5.462   4.157   5.291
 7917WAT     H124153   5.480   4.103   5.215
 7917WAT     H224154   5.372   4.135   5.316
 7918WAT      O24155   7.322   3.144   2.273
 7918WAT     H124156   7.358   3.120   2.359
 7918WAT     H224157   7.248   3.085   2.261
 7919WAT      O24158   1.893   4.897   0.927
 7919WAT     H124159   1.856   4.970   0.977
 7919WAT     H224160   1.971   4.933   0.885
 7920WAT      O24161   2.698   6.984   2.576
 7920WAT     H124162   2.696   6.922   2.649
 7920WAT     H224163   2.688   6.929   2.498
 7921WAT      O24164   1.479   4.834   1.058
 7921WAT     H124165   1.496   4.806   0.968
 7921WAT     H224166   1.477   4.929   1.053
 7922WAT      O24167   0.993   0.576   0.890
 7922WAT     H124168   0.994   0.670   0.874
 7922WAT     H224169   0.962   0.537   0.808
 7923WAT      O24170   0.263   0.458   1.780
 7923WAT     H124171   0.234   0.403   1.707
 7923WAT     H224172   0.255   0.548   1.747
 7924WAT      O24173   1.530   0.954   4.888
 7924WAT     H124174   1.569   0.909   4.813
 7924WAT     H224175   1.517   1.043   4.858
 7925WAT      O24176   1.668   7.024   1.182
 7925WAT     H124177   1.704   6.967   1.249
 7925WAT     H224178   1.744   7.070   1.147
 7926WAT      O24179   3.879   5.482   0.959
 7926WAT     H124180   3.809   5.546   0.966
 7926WAT     H224181   3.934   5.514   0.887
 7927WAT      O24182   7.049   3.636   5.302
 7927WAT     H124183   6.966   3.663   5.342
 7927WAT     H224184   7.070   3.708   5.242
 7928WAT      O24185   3.992   3.653   5.569
 7928WAT     H124186   3.996   3.559   5.553
 7928WAT     H224187   3.967   3.690   5.485
 7929WAT      O24188   4.994   3.882   2.535
 7929WAT     H124189   5.006   3.824   2.460
 7929WAT     H224190   4.931   3.947   2.505
 7930WAT      O24191   5.122   0.463   4.791
 7930WAT     H124192   5.147   0.379   4.752
 7930WAT     H224193   5.044   0.490   4.743
 7931WAT      O24194   5.938   2.503   3.246
 7931WAT     H124195   5.849   2.476   3.224
 7931WAT     H224196   5.990   2.422   3.241
 7932WAT      O24197   0.662   2.059   3.360
 7932WAT     H124198   0.581   2.085   3.317
 7932WAT     H224199   0.730   2.069   3.293
 7933WAT      O24200   0.181   0.638   3.301
 7933WAT     H124201   0.163   0.662   3.210
 7933WAT     H224202   0.251   0.573   3.295
 7934WAT      O24203   2.608   1.600   2.246
 7934WAT     H124204   2.684   1.618   2.191
 7934WAT     H224205   2.533   1.612   2.188
 7935WAT      O24206   4.461   0.630   5.201
 7935WAT     H124207   4.424   0.656   5.116
 7935WAT     H224208   4.460   0.710   5.253
 7936WAT      O24209   0.936   1.326   5.638
 7936WAT     H124210   0.846   1.302   5.658
 7936WAT     H224211   0.988   1.283   5.706
 7937WAT      O24212   1.569   1.334   2.110
 7937WAT     H124213   1.646   1.353   2.056
 7937WAT     H224214   1.498   1.322   2.047
 7938WAT      O24215   7.301   1.984   2.674
 7938WAT     H124216   7.284   2.057   2.614
 7938WAT     H224217   7.391   1.958   2.655
 7939WAT      O24218   3.555   2.356   1.122
 7939WAT     H124219   3.508   2.286   1.076
 7939WAT     H224220   3.645   2.348   1.093
 7940WAT      O24221   3.868   6.037   1.940
 7940WAT     H124222   3.801   6.045   1.873
 7940WAT     H224223   3.821   6.013   2.020
 7941WAT      O24224   2.977   7.073   3.492
 7941WAT     H124225   2.961   7.164   3.469
 7941WAT     H224226   2.984   7.028   3.408
 7942WAT      O24227   3.368   4.631   5.068
 7942WAT     H124228   3.293   4.592   5.022
 7942WAT     H224229   3.444   4.608   5.014
 7943WAT      O24230   4.621   6.055   5.234
 7943WAT     H124231   4.698   6.107   5.212
 7943WAT     H224232   4.652   5.995   5.302
 7944WAT      O24233   6.840   2.030   0.456
 7944WAT     H124234   6.794   2.096   0.403
 7944WAT     H224235   6.930   2.033   0.424
 7945WAT      O24236   6.125   6.147   5.833
 7945WAT     H124237   6.173   6.141   5.915
 7945WAT     H224238   6.049   6.202   5.853
 7946WAT      O24239   4.303   0.865   1.621
 7946WAT     H124240   4.259   0.922   1.684
 7946WAT     H224241   4.325   0.924   1.548
 7947WAT      O24242   5.364   2.401   5.686
 7947WAT     H124243   5.377   2.405   5.591
 7947WAT     H224244   5.423   2.466   5.722
 7948WAT      O24245   6.699   3.796   0.926
 7948WAT     H124246   6.647   3.840   0.858
 7948WAT     H224247   6.734   3.718   0.883
 7949WAT      O24248   2.877   1.643   5.267
 7949WAT     H124249   2.922   1.599   5.195
 7949WAT     H224250   2.858   1.731   5.234
 7950WAT      O24251   5.686   4.178   6.167
 7950WAT     H124252   5.709   4.085   6.163
 7950WAT     H224253   5.632   4.192   6.089
 7951WAT      O24254   5.777   6.774   1.471
 7951WAT     H124255   5.749   6.733   1.553
 7951WAT     H224256   5.785   6.702   1.409
 7952WAT      O24257   1.206   1.140   4.781
 7952WAT     H124258   1.136   1.188   4.824
 7952WAT     H224259   1.276   1.204   4.769
 7953WAT      O24260   4.129   5.958   1.870
 7953WAT     H124261   4.160   5.923   1.954
 7953WAT     H224262   4.042   5.994   1.889
 7954WAT      O24263   0.367   3.962   5.352
 7954WAT     H124264   0.304   3.998   5.290
 7954WAT     H224265   0.381   3.872   5.322
 7955WAT      O24266   1.470   6.919   5.554
 7955WAT     H124267   1.563   6.942   5.544
 7955WAT     H224268   1.443   6.892   5.466
 7956WAT      O24269   0.181   5.220   5.436
 7956WAT     H124270   0.141   5.270   5.365
 7956WAT     H224271   0.221   5.145   5.392
 7957WAT      O24272   2.670   3.412   3.658
 7957WAT     H124273   2.650   3.318   3.658
 7957WAT     H224274   2.699   3.430   3.568
 7958WAT      O24275   2.124   3.512   4.647
 7958WAT     H124276   2.056   3.446   4.626
 7958WAT     H224277   2.170   3.525   4.564
 7959WAT      O24278   0.662   0.829   0.280
 7959WAT     H124279   0.656   0.803   0.188
 7959WAT     H224280   0.700   0.917   0.277
 7960WAT      O24281   4.173   2.579   4.984
 7960WAT     H124282   4.183   2.668   5.017
 7960WAT     H224283   4.262   2.545   4.979
 7961WAT      O24284   5.658   2.805   4.518
 7961WAT     H124285   5.690   2.893   4.499
 7961WAT     H224286   5.625   2.773   4.434
 7962WAT      O24287   5.127   7.152   5.722
 7962WAT     H124288   5.125   7.152   5.626
 7962WAT     H224289   5.119   7.060   5.746
 7963WAT      O24290   1.815   2.814   5.691
 7963WAT     H124291   1.836   2.808   5.598
 7963WAT     H224292   1.844   2.731   5.728
 7964WAT      O24293   2.173   2.510   5.621
 7964WAT     H124294   2.150   2.482   5.532
 7964WAT     H224295   2.255   2.559   5.610
 7965WAT      O24296   6.200   1.468   0.187
 7965WAT     H124297   6.291   1.497   0.185
 7965WAT     H224298   6.202   1.380   0.149
 7966WAT      O24299   6.705   1.986   1.928
 7966WAT     H124300   6.793   1.991   1.964
 7966WAT     H224301   6.717   1.955   1.838
 7967WAT      O24302   4.851   3.901   0.510
 7967WAT     H124303   4.811   3.851   0.440
 7967WAT     H224304   4.840   3.992   0.484
 7968WAT      O24305   0.700   2.918   3.420
 7968WAT     H124306   0.746   2.915   3.336
 7968WAT     H224307   0.613   2.883   3.402
 7969WAT      O24308   1.884   1.151   5.026
 7969WAT     H124309   1.896   1.056   5.018
 7969WAT     H224310   1.842   1.163   5.110
 7970WAT      O24311   0.069   6.830   4.943
 7970WAT     H124312   0.145   6.773   4.924
 7970WAT     H224313   0.029   6.790   5.020
 7971WAT      O24314   4.546   6.503   4.221
 7971WAT     H124315   4.503   6.469   4.142
 7971WAT     H224316   4.639   6.484   4.208
 7972WAT      O24317   0.392   0.108   6.096
 7972WAT     H124318   0.331   0.176   6.069
 7972WAT     H224319   0.426   0.073   6.013
 7973WAT      O24320   0.177   0.966   4.254
 7973WAT     H124321   0.170   0.881   4.295
 7973WAT     H224322   0.267   0.993   4.269
 7974WAT      O24323   5.992   5.309   1.768
 7974WAT     H124324   6.053   5.318   1.695
 7974WAT     H224325   5.905   5.317   1.728
 7975WAT      O24326   0.470   4.801   0.371
 7975WAT     H124327   0.473   4.707   0.385
 7975WAT     H224328   0.547   4.820   0.317
 7976WAT      O24329   3.610   6.726   3.719
 7976WAT     H124330   3.684   6.667   3.703
 7976WAT     H224331   3.551   6.711   3.645
 7977WAT      O24332   3.763   2.483   0.376
 7977WAT     H124333   3.710   2.560   0.398
 7977WAT     H224334   3.719   2.444   0.301
 7978WAT      O24335   1.313   6.451   1.315
 7978WAT     H124336   1.241   6.487   1.367
 7978WAT     H224337   1.390   6.503   1.341
 7979WAT      O24338   5.963   4.668   1.536
 7979WAT     H124339   6.027   4.696   1.602
 7979WAT     H224340   6.016   4.633   1.465
 7980WAT      O24341   0.862   5.944   2.469
 7980WAT     H124342   0.951   5.976   2.452
 7980WAT     H224343   0.839   5.894   2.391
 7981WAT      O24344   5.101   6.480   5.560
 7981WAT     H124345   5.065   6.408   5.510
 7981WAT     H224346   5.037   6.551   5.552
 7982WAT      O24347   5.713   2.371   1.697
 7982WAT     H124348   5.729   2.462   1.673
 7982WAT     H224349   5.800   2.334   1.710
 7983WAT      O24350   6.379   1.765   3.219
 7983WAT     H124351   6.401   1.673   3.232
 7983WAT     H224352   6.293   1.776   3.257
 7984WAT      O24353   4.601   4.784   4.258
 7984WAT     H124354   4.506   4.794   4.268
 7984WAT     H224355   4.638   4.836   4.330
 7985WAT      O24356   3.845   5.368   3.061
 7985WAT     H124357   3.884   5.385   2.975
 7985WAT     H224358   3.826   5.274   3.060
 7986WAT      O24359   1.241   7.152   4.334
 7986WAT     H124360   1.324   7.188   4.301
 7986WAT     H224361   1.230   7.070   4.288
 7987WAT      O24362   1.946   3.699   0.082
 7987WAT     H124363   1.935   3.671  -0.009
 7987WAT     H224364   1.904   3.785   0.086
 7988WAT      O24365   6.359   4.630   0.424
 7988WAT     H124366   6.408   4.686   0.364
 7988WAT     H224367   6.399   4.544   0.414
 7989WAT      O24368   3.365   7.193   4.126
 7989WAT     H124369   3.329   7.172   4.212
 7989WAT     H224370   3.419   7.118   4.103
 7990WAT      O24371   6.328   5.880   0.939
 7990WAT     H124372   6.395   5.811   0.936
 7990WAT     H224373   6.354   5.941   0.870
 7991WAT      O24374   1.535   1.159   3.829
 7991WAT     H124375   1.568   1.075   3.797
 7991WAT     H224376   1.454   1.138   3.874
 7992WAT      O24377   0.722   5.270   1.677
 7992WAT     H124378   0.689   5.185   1.706
 7992WAT     H224379   0.792   5.249   1.615
 7993WAT      O24380   4.064   3.619   0.397
 7993WAT     H124381   4.150   3.598   0.433
 7993WAT     H224382   4.079   3.697   0.343
 7994WAT      O24383   7.381   4.970   3.768
 7994WAT     H124384   7.473   4.957   3.789
 7994WAT     H224385   7.381   5.005   3.679
 7995WAT      O24386   6.735   6.114   4.240
 7995WAT     H124387   6.640   6.118   4.227
 7995WAT     H224388   6.748   6.140   4.331
 7996WAT      O24389   3.124   6.373   1.621
 7996WAT     H124390   3.079   6.414   1.547
 7996WAT     H224391   3.108   6.280   1.611
 7997WAT      O24392   6.000   0.436   3.754
 7997WAT     H124393   6.076   0.402   3.707
 7997WAT     H224394   5.986   0.523   3.716
 7998WAT      O24395   3.936   0.389   2.511
 7998WAT     H124396   3.980   0.345   2.438
 7998WAT     H224397   3.981   0.473   2.519
 7999WAT      O24398   5.672   4.589   1.178
 7999WAT     H124399   5.651   4.671   1.132
 7999WAT     H224400   5.716   4.536   1.111
 8000WAT      O24401   1.089   6.691   3.090
 8000WAT     H124402   1.097   6.637   3.169
 8000WAT     H224403   1.179   6.700   3.058
 8001WAT      O24404   7.548   4.862   4.727
 8001WAT     H124405   7.569   4.898   4.640
 8001WAT     H224406   7.581   4.773   4.724
 8002WAT      O24407   6.466   5.362   6.093
 8002WAT     H124408   6.437   5.273   6.112
 8002WAT     H224409   6.445   5.412   6.172
 8003WAT      O24410   4.817   2.031   5.778
 8003WAT     H124411   4.797   2.123   5.760
 8003WAT     H224412   4.750   1.982   5.731
 8004WAT      O24413   4.282   6.721   1.973
 8004WAT     H124414   4.260   6.632   1.945
 8004WAT     H224415   4.236   6.778   1.911
 8005WAT      O24416   2.547   6.796   4.884
 8005WAT     H124417   2.604   6.772   4.812
 8005WAT     H224418   2.483   6.857   4.846
 8006WAT      O24419   4.560   4.809   6.204
 8006WAT     H124420   4.537   4.898   6.180
 8006WAT     H224421   4.588   4.768   6.122
 8007WAT      O24422   2.030   3.064   0.053
 8007WAT     H124423   2.072   3.000   0.112
 8007WAT     H224424   2.053   3.149   0.090
 8008WAT      O24425   6.619   4.076   1.325
 8008WAT     H124426   6.556   4.147   1.312
 8008WAT     H224427   6.565   3.996   1.329
 8009WAT      O24428   6.777   6.395   5.141
 8009WAT     H124429   6.815   6.449   5.071
 8009WAT     H224430   6.719   6.335   5.094
 8010WAT      O24431   7.308   6.885   5.700
 8010WAT     H124432   7.233   6.843   5.743
 8010WAT     H224433   7.373   6.893   5.770
 8011WAT      O24434   0.338   4.325   2.270
 8011WAT     H124435   0.340   4.361   2.181
 8011WAT     H224436   0.408   4.260   2.271
 8012WAT      O24437   3.130   0.730   5.107
 8012WAT     H124438   3.214   0.684   5.113
 8012WAT     H224439   3.117   0.768   5.194
 8013WAT      O24440   7.523   1.212   0.210
 8013WAT     H124441   7.525   1.148   0.282
 8013WAT     H224442   7.523   1.158   0.131
 8014WAT      O24443   1.031   1.683   4.434
 8014WAT     H124444   1.044   1.771   4.470
 8014WAT     H224445   1.071   1.687   4.347
 8015WAT      O24446   5.946   5.979   3.924
 8015WAT     H124447   6.024   5.932   3.953
 8015WAT     H224448   5.943   5.965   3.830
 8016WAT      O24449   6.091   3.703   0.037
 8016WAT     H124450   6.174   3.661   0.062
 8016WAT     H224451   6.102   3.725  -0.055
 8017WAT      O24452   5.415   5.944   5.086
 8017WAT     H124453   5.420   5.849   5.079
 8017WAT     H224454   5.503   5.974   5.062
 8018WAT      O24455   5.382   1.708   0.566
 8018WAT     H124456   5.336   1.713   0.482
 8018WAT     H224457   5.459   1.764   0.555
 8019WAT      O24458   7.174   6.204   0.531
 8019WAT     H124459   7.092   6.173   0.492
 8019WAT     H224460   7.177   6.161   0.616
 8020WAT      O24461   1.223   3.106   5.751
 8020WAT     H124462   1.199   3.187   5.707
 8020WAT     H224463   1.269   3.134   5.831
 8021WAT      O24464   5.740   2.156   5.700
 8021WAT     H124465   5.679   2.102   5.750
 8021WAT     H224466   5.696   2.170   5.617
 8022WAT      O24467   6.694   0.694   5.174
 8022WAT     H124468   6.745   0.626   5.130
 8022WAT     H224469   6.666   0.752   5.103
 8023WAT      O24470   7.139   0.028   1.643
 8023WAT     H124471   7.199  -0.028   1.593
 8023WAT     H224472   7.157   0.117   1.611
 8024WAT      O24473   2.717   2.149   0.693
 8024WAT     H124474   2.651   2.141   0.624
 8024WAT     H224475   2.780   2.079   0.674
 8025WAT      O24476   0.431   0.666   2.939
 8025WAT     H124477   0.419   0.643   2.847
 8025WAT     H224478   0.348   0.706   2.965
 8026WAT      O24479   4.337   0.398   0.320
 8026WAT     H124480   4.338   0.333   0.249
 8026WAT     H224481   4.249   0.392   0.357
 8027WAT      O24482   2.878   1.931   4.645
 8027WAT     H124483   2.837   2.017   4.658
 8027WAT     H224484   2.859   1.908   4.554
 8028WAT      O24485   1.025   6.304   3.997
 8028WAT     H124486   0.985   6.320   3.912
 8028WAT     H224487   1.097   6.244   3.979
 8029WAT      O24488   5.938   6.934   4.433
 8029WAT     H124489   5.846   6.925   4.409
 8029WAT     H224490   5.968   6.845   4.449
 8030WAT      O24491   4.220   3.903   4.495
 8030WAT     H124492   4.253   3.955   4.568
 8030WAT     H224493   4.298   3.861   4.459
 8031WAT      O24494   1.841   1.162   5.876
 8031WAT     H124495   1.901   1.181   5.804
 8031WAT     H224496   1.765   1.121   5.834
 8032WAT      O24497   0.219   2.704   2.962
 8032WAT     H124498   0.204   2.636   3.027
 8032WAT     H224499   0.259   2.658   2.888
 8033WAT      O24500   5.931   5.499   5.338
 8033WAT     H124501   5.851   5.545   5.312
 8033WAT     H224502   5.903   5.409   5.351
 8034WAT      O24503   0.080   5.271   5.681
 8034WAT     H124504   0.043   5.351   5.641
 8034WAT     H224505   0.130   5.230   5.610
 8035WAT      O24506   0.642   6.076   3.783
 8035WAT     H124507   0.723   6.046   3.825
 8035WAT     H224508   0.573   6.055   3.845
 8036WAT      O24509   2.904   2.072   1.487
 8036WAT     H124510   2.956   1.993   1.481
 8036WAT     H224511   2.951   2.136   1.434
 8037WAT      O24512   4.073   0.671   0.884
 8037WAT     H124513   4.076   0.763   0.911
 8037WAT     H224514   4.068   0.674   0.788
 8038WAT      O24515   3.662   6.663   5.333
 8038WAT     H124516   3.597   6.705   5.276
 8038WAT     H224517   3.703   6.596   5.278
 8039WAT      O24518   6.735   6.180   0.191
 8039WAT     H124519   6.782   6.175   0.107
 8039WAT     H224520   6.643   6.168   0.168
 8040WAT      O24521   6.812   3.921   5.293
 8040WAT     H124522   6.775   3.932   5.205
 8040WAT     H224523   6.785   3.833   5.319
 8041WAT      O24524   4.130   4.089   0.121
 8041WAT     H124525   4.198   4.095   0.055
 8041WAT     H224526   4.049   4.111   0.075
 8042WAT      O24527   5.710   5.335   5.679
 8042WAT     H124528   5.720   5.422   5.640
 8042WAT     H224529   5.788   5.323   5.732
 8043WAT      O24530   6.571   3.854   1.736
 8043WAT     H124531   6.559   3.949   1.745
 8043WAT     H224532   6.493   3.816   1.776
 8044WAT      O24533   5.535   3.725   1.041
 8044WAT     H124534   5.469   3.737   0.973
 8044WAT     H224535   5.613   3.696   0.994
 8045WAT      O24536   1.943   6.920   0.088
 8045WAT     H124537   1.986   6.986   0.033
 8045WAT     H224538   1.856   6.911   0.050
 8046WAT      O24539   6.954   3.485   1.702
 8046WAT     H124540   6.898   3.560   1.680
 8046WAT     H224541   6.940   3.471   1.795
 8047WAT      O24542   6.762   2.108   4.383
 8047WAT     H124543   6.671   2.093   4.358
 8047WAT     H224544   6.813   2.054   4.321
 8048WAT      O24545   5.064   0.258   5.433
 8048WAT     H124546   5.124   0.306   5.490
 8048WAT     H224547   5.044   0.177   5.481
 8049WAT      O24548   5.104   4.417   2.638
 8049WAT     H124549   5.111   4.344   2.576
 8049WAT     H224550   5.096   4.374   2.723
 8050WAT      O24551   4.643   5.545   2.774
 8050WAT     H124552   4.672   5.619   2.722
 8050WAT     H224553   4.713   5.480   2.765
 8051WAT      O24554   3.386   4.022   2.384
 8051WAT     H124555   3.374   4.085   2.313
 8051WAT     H224556   3.325   4.051   2.452
 8052WAT      O24557   4.232   4.412   0.200
 8052WAT     H124558   4.248   4.415   0.294
 8052WAT     H224559   4.139   4.433   0.191
 8053WAT      O24560   6.822   6.785   1.829
 8053WAT     H124561   6.796   6.693   1.826
 8053WAT     H224562   6.886   6.795   1.758
 8054WAT      O24563   7.546   1.429   0.397
 8054WAT     H124564   7.560   1.335   0.383
 8054WAT     H224565   7.619   1.455   0.454
 8055WAT      O24566   0.712   4.716   5.761
 8055WAT     H124567   0.700   4.791   5.819
 8055WAT     H224568   0.623   4.689   5.737
 8056WAT      O24569   2.728   6.298   0.264
 8056WAT     H124570   2.794   6.324   0.200
 8056WAT     H224571   2.659   6.257   0.212
 8057WAT      O24572   3.596   4.142   1.096
 8057WAT     H124573   3.628   4.165   1.008
 8057WAT     H224574   3.615   4.220   1.149
 8058WAT      O24575   2.671   4.058   4.623
 8058WAT     H124576   2.734   3.992   4.596
 8058WAT     H224577   2.707   4.141   4.593
 8059WAT      O24578   4.841   4.216   0.787
 8059WAT     H124579   4.865   4.307   0.803
 8059WAT     H224580   4.925   4.170   0.778
 8060WAT      O24581   4.385   2.512   0.826
 8060WAT     H124582   4.322   2.515   0.755
 8060WAT     H224583   4.470   2.509   0.783
 8061WAT      O24584   3.357   1.153   0.107
 8061WAT     H124585   3.384   1.218   0.172
 8061WAT     H224586   3.278   1.191   0.067
 8062WAT      O24587   2.781   2.436   0.734
 8062WAT     H124588   2.777   2.341   0.745
 8062WAT     H224589   2.713   2.456   0.670
 8063WAT      O24590   4.244   6.989   1.283
 8063WAT     H124591   4.313   6.987   1.218
 8063WAT     H224592   4.176   6.930   1.249
 8064WAT      O24593   4.014   2.700   5.284
 8064WAT     H124594   4.083   2.723   5.220
 8064WAT     H224595   3.933   2.705   5.234
 8065WAT      O24596   4.775   2.971   3.839
 8065WAT     H124597   4.861   2.991   3.876
 8065WAT     H224598   4.784   2.994   3.746
 8066WAT      O24599   2.339   3.444   1.316
 8066WAT     H124600   2.339   3.461   1.410
 8066WAT     H224601   2.316   3.351   1.308
 8067WAT      O24602   6.690   2.706   0.801
 8067WAT     H124603   6.665   2.758   0.877
 8067WAT     H224604   6.708   2.769   0.732
 8068WAT      O24605   7.200   2.307   4.725
 8068WAT     H124606   7.178   2.390   4.683
 8068WAT     H224607   7.138   2.244   4.689
 8069WAT      O24608   0.329   1.929   4.380
 8069WAT     H124609   0.317   1.927   4.285
 8069WAT     H224610   0.251   1.973   4.413
 8070WAT      O24611   3.949   2.951   4.434
 8070WAT     H124612   3.897   3.022   4.472
 8070WAT     H224613   3.893   2.913   4.367
 8071WAT      O24614   1.254   6.666   0.867
 8071WAT     H124615   1.260   6.740   0.807
 8071WAT     H224616   1.216   6.595   0.814
 8072WAT      O24617   5.477   5.408   3.328
 8072WAT     H124618   5.517   5.435   3.411
 8072WAT     H224619   5.541   5.433   3.261
 8073WAT      O24620   5.358   6.448   5.798
 8073WAT     H124621   5.263   6.457   5.803
 8073WAT     H224622   5.378   6.453   5.704
 8074WAT      O24623   6.621   6.053   1.615
 8074WAT     H124624   6.587   6.125   1.562
 8074WAT     H224625   6.592   6.073   1.704
 8075WAT      O24626   4.940   2.209   0.456
 8075WAT     H124627   4.853   2.209   0.496
 8075WAT     H224628   4.934   2.275   0.387
 8076WAT      O24629   2.862   7.032   0.084
 8076WAT     H124630   2.853   7.030   0.179
 8076WAT     H224631   2.889   6.944   0.060
 8077WAT      O24632   0.335   0.515   6.000
 8077WAT     H124633   0.411   0.475   5.958
 8077WAT     H224634   0.277   0.540   5.928
 8078WAT      O24635   4.423   4.889   1.352
 8078WAT     H124636   4.438   4.982   1.338
 8078WAT     H224637   4.336   4.885   1.392
 8079WAT      O24638   2.164   5.464   6.062
 8079WAT     H124639   2.171   5.459   6.157
 8079WAT     H224640   2.078   5.428   6.043
 8080WAT      O24641   6.941   5.025   5.811
 8080WAT     H124642   6.977   4.978   5.886
 8080WAT     H224643   6.993   5.104   5.805
 8081WAT      O24644   2.764   3.188   0.709
 8081WAT     H124645   2.683   3.204   0.757
 8081WAT     H224646   2.817   3.266   0.725
 8082WAT      O24647   4.470   3.797   3.669
 8082WAT     H124648   4.432   3.806   3.757
 8082WAT     H224649   4.413   3.851   3.613
 8083WAT      O24650   6.103   3.126   6.122
 8083WAT     H124651   6.178   3.183   6.106
 8083WAT     H224652   6.032   3.165   6.071
 8084WAT      O24653   3.376   1.124   1.518
 8084WAT     H124654   3.397   1.117   1.425
 8084WAT     H224655   3.286   1.156   1.520
 8085WAT      O24656   7.311   4.973   1.802
 8085WAT     H124657   7.339   4.970   1.711
 8085WAT     H224658   7.286   4.883   1.823
 8086WAT      O24659   5.811   3.308   4.077
 8086WAT     H124660   5.831   3.378   4.015
 8086WAT     H224661   5.877   3.318   4.146
 8087WAT      O24662   0.832   5.893   4.542
 8087WAT     H124663   0.806   5.845   4.621
 8087WAT     H224664   0.864   5.825   4.482
 8088WAT      O24665   6.473   6.842   5.814
 8088WAT     H124666   6.422   6.794   5.749
 8088WAT     H224667   6.419   6.917   5.837
 8089WAT      O24668   6.322   4.020   0.330
 8089WAT     H124669   6.264   4.073   0.276
 8089WAT     H224670   6.281   3.934   0.332
 8090WAT      O24671   7.606   7.044   1.786
 8090WAT     H124672   7.683   7.016   1.738
 8090WAT     H224673   7.537   7.050   1.720
 8091WAT      O24674   4.997   5.690   1.663
 8091WAT     H124675   5.028   5.776   1.632
 8091WAT     H224676   5.029   5.628   1.597
 8092WAT      O24677   5.432   1.899   4.370
 8092WAT     H124678   5.525   1.905   4.349
 8092WAT     H224679   5.391   1.872   4.288
 8093WAT      O24680   4.989   3.907   1.628
 8093WAT     H124681   5.023   3.945   1.547
 8093WAT     H224682   4.916   3.852   1.599
 8094WAT      O24683   2.972   4.816   5.031
 8094WAT     H124684   2.892   4.834   5.081
 8094WAT     H224685   2.970   4.721   5.018
 8095WAT      O24686   3.483   0.760   2.636
 8095WAT     H124687   3.452   0.761   2.546
 8095WAT     H224688   3.495   0.852   2.659
 8096WAT      O24689   6.475   1.495   0.194
 8096WAT     H124690   6.547   1.552   0.221
 8096WAT     H224691   6.494   1.473   0.103
 8097WAT      O24692   2.697   0.780   5.147
 8097WAT     H124693   2.756   0.705   5.157
 8097WAT     H224694   2.611   0.741   5.136
 8098WAT      O24695   1.839   2.580   0.645
 8098WAT     H124696   1.839   2.648   0.577
 8098WAT     H224697   1.770   2.607   0.705
 8099WAT      O24698   2.049   3.909   1.515
 8099WAT     H124699   2.020   3.920   1.425
 8099WAT     H224700   2.081   3.995   1.541
 8100WAT      O24701   6.612   6.189   6.154
 8100WAT     H124702   6.701   6.213   6.130
 8100WAT     H224703   6.559   6.208   6.077
 8101WAT      O24704   0.447   0.871   0.731
 8101WAT     H124705   0.476   0.926   0.804
 8101WAT     H224706   0.490   0.787   0.746
 8102WAT      O24707   4.119   1.995   0.308
 8102WAT     H124708   4.047   1.933   0.291
 8102WAT     H224709   4.125   2.046   0.227
 8103WAT      O24710   6.729   2.601   1.724
 8103WAT     H124711   6.750   2.526   1.668
 8103WAT     H224712   6.788   2.670   1.694
 8104WAT      O24713   1.102   0.267   2.990
 8104WAT     H124714   1.079   0.246   3.081
 8104WAT     H224715   1.091   0.362   2.984
 8105WAT      O24716   0.853   4.474   5.822
 8105WAT     H124717   0.825   4.426   5.745
 8105WAT     H224718   0.798   4.552   5.823
 8106WAT      O24719   1.735   3.599   1.691
 8106WAT     H124720   1.740   3.693   1.674
 8106WAT     H224721   1.730   3.559   1.604
 8107WAT      O24722   7.434   5.478   5.272
 8107WAT     H124723   7.521   5.455   5.239
 8107WAT     H224724   7.376   5.410   5.237
 8108WAT      O24725   4.730   7.039   0.375
 8108WAT     H124726   4.750   7.132   0.362
 8108WAT     H224727   4.635   7.036   0.386
 8109WAT      O24728   5.047   4.253   5.040
 8109WAT     H124729   5.117   4.198   5.006
 8109WAT     H224730   5.045   4.234   5.134
 8110WAT      O24731   5.837   0.181   1.838
 8110WAT     H124732   5.835   0.239   1.914
 8110WAT     H224733   5.751   0.139   1.837
 8111WAT      O24734   5.308   4.962   2.347
 8111WAT     H124735   5.328   4.870   2.365
 8111WAT     H224736   5.243   4.986   2.413
 8112WAT      O24737   4.359   4.474   3.325
 8112WAT     H124738   4.313   4.500   3.245
 8112WAT     H224739   4.399   4.555   3.357
 8113WAT      O24740   6.180   2.621   4.320
 8113WAT     H124741   6.147   2.601   4.232
 8113WAT     H224742   6.104   2.614   4.376
 8114WAT      O24743   6.344   2.529   1.226
 8114WAT     H124744   6.304   2.457   1.177
 8114WAT     H224745   6.341   2.500   1.317
 8115WAT      O24746   3.548   4.909   0.550
 8115WAT     H124747   3.491   4.901   0.626
 8115WAT     H224748   3.489   4.902   0.475
 8116WAT      O24749   4.996   0.446   2.339
 8116WAT     H124750   4.901   0.449   2.326
 8116WAT     H224751   5.024   0.366   2.295
 8117WAT      O24752   2.879   4.346   2.127
 8117WAT     H124753   2.967   4.381   2.134
 8117WAT     H224754   2.830   4.414   2.080
 8118WAT      O24755   3.508   3.421   2.346
 8118WAT     H124756   3.529   3.426   2.253
 8118WAT     H224757   3.577   3.470   2.390
 8119WAT      O24758   4.898   6.287   3.746
 8119WAT     H124759   4.907   6.238   3.665
 8119WAT     H224760   4.968   6.352   3.744
 8120WAT      O24761   0.324   2.497   5.594
 8120WAT     H124762   0.246   2.515   5.542
 8120WAT     H224763   0.338   2.403   5.583
 8121WAT      O24764   0.387   2.302   0.906
 8121WAT     H124765   0.397   2.209   0.928
 8121WAT     H224766   0.426   2.310   0.818
 8122WAT      O24767   6.062   5.599   3.574
 8122WAT     H124768   6.156   5.580   3.574
 8122WAT     H224769   6.032   5.568   3.488
 8123WAT      O24770   2.846   2.405   1.654
 8123WAT     H124771   2.844   2.435   1.563
 8123WAT     H224772   2.817   2.482   1.704
 8124WAT      O24773   3.504   1.030   4.324
 8124WAT     H124774   3.476   1.003   4.237
 8124WAT     H224775   3.439   0.992   4.383
 8125WAT      O24776   1.773   2.478   4.351
 8125WAT     H124777   1.681   2.475   4.379
 8125WAT     H224778   1.796   2.386   4.336
 8126WAT      O24779   2.187   1.045   4.477
 8126WAT     H124780   2.128   1.065   4.550
 8126WAT     H224781   2.269   1.086   4.501
 8127WAT      O24782   5.640   6.647   4.114
 8127WAT     H124783   5.723   6.611   4.144
 8127WAT     H224784   5.576   6.578   4.129
 8128WAT      O24785   2.890   2.408   3.799
 8128WAT     H124786   2.905   2.344   3.868
 8128WAT     H224787   2.915   2.363   3.718
 8129WAT      O24788   2.232   6.703   4.694
 8129WAT     H124789   2.270   6.791   4.692
 8129WAT     H224790   2.208   6.685   4.604
 8130WAT      O24791   4.291   1.438   4.431
 8130WAT     H124792   4.200   1.430   4.404
 8130WAT     H224793   4.333   1.358   4.400
 8131WAT      O24794   7.611   6.142   2.812
 8131WAT     H124795   7.616   6.047   2.802
 8131WAT     H224796   7.699   6.174   2.792
 8132WAT      O24797   5.087   3.846   5.166
 8132WAT     H124798   5.135   3.867   5.086
 8132WAT     H224799   5.152   3.807   5.224
 8133WAT      O24800   7.427   5.697   6.006
 8133WAT     H124801   7.369   5.764   5.971
 8133WAT     H224802   7.501   5.694   5.944
 8134WAT      O24803   6.841   6.606   1.289
 8134WAT     H124804   6.867   6.671   1.355
 8134WAT     H224805   6.885   6.634   1.209
 8135WAT      O24806   6.149   3.799   0.349
 8135WAT     H124807   6.122   3.780   0.259
 8135WAT     H224808   6.141   3.715   0.394
 8136WAT      O24809   6.208   0.748   3.332
 8136WAT     H124810   6.237   0.680   3.271
 8136WAT     H224811   6.173   0.817   3.275
 8137WAT      O24812   0.494   0.471   5.127
 8137WAT     H124813   0.553   0.546   5.120
 8137WAT     H224814   0.551   0.395   5.130
 8138WAT      O24815   3.193   0.589   4.858
 8138WAT     H124816   3.171   0.644   4.783
 8138WAT     H224817   3.155   0.635   4.933
 8139WAT      O24818   6.629   0.549   5.880
 8139WAT     H124819   6.552   0.517   5.834
 8139WAT     H224820   6.703   0.504   5.839
 8140WAT      O24821   1.894   7.089   4.995
 8140WAT     H124822   1.821   7.072   4.935
 8140WAT     H224823   1.916   7.002   5.029
 8141WAT      O24824   5.111   4.139   0.534
 8141WAT     H124825   5.151   4.122   0.448
 8141WAT     H224826   5.023   4.170   0.513
 8142WAT      O24827   3.827   5.943   4.133
 8142WAT     H124828   3.921   5.950   4.116
 8142WAT     H224829   3.789   6.019   4.089
 8143WAT      O24830   5.058   3.226   3.450
 8143WAT     H124831   5.085   3.190   3.365
 8143WAT     H224832   5.114   3.181   3.514
 8144WAT      O24833   3.921   5.377   2.048
 8144WAT     H124834   3.965   5.366   1.964
 8144WAT     H224835   3.828   5.383   2.026
 8145WAT      O24836   3.676   2.011   0.098
 8145WAT     H124837   3.732   1.937   0.073
 8145WAT     H224838   3.653   2.052   0.015
 8146WAT      O24839   5.108   2.307   1.440
 8146WAT     H124840   5.104   2.402   1.429
 8146WAT     H224841   5.182   2.280   1.386
 8147WAT      O24842   1.387   3.896   5.602
 8147WAT     H124843   1.368   3.961   5.533
 8147WAT     H224844   1.448   3.835   5.562
 8148WAT      O24845   4.748   2.969   0.515
 8148WAT     H124846   4.818   2.935   0.571
 8148WAT     H224847   4.668   2.928   0.548
 8149WAT      O24848   2.180   4.874   0.453
 8149WAT     H124849   2.105   4.888   0.511
 8149WAT     H224850   2.159   4.794   0.406
 8150WAT      O24851   0.001   0.172   1.137
 8150WAT     H124852   0.042   0.100   1.185
 8150WAT     H224853   0.055   0.248   1.157
 8151WAT      O24854   5.414   4.146   1.430
 8151WAT     H124855   5.373   4.230   1.452
 8151WAT     H224856   5.340   4.087   1.417
 8152WAT      O24857   0.714   4.753   4.829
 8152WAT     H124858   0.637   4.809   4.828
 8152WAT     H224859   0.783   4.809   4.865
 8153WAT      O24860   6.923   6.898   5.918
 8153WAT     H124861   6.998   6.934   5.967
 8153WAT     H224862   6.961   6.831   5.862
 8154WAT      O24863   2.402   1.318   1.507
 8154WAT     H124864   2.374   1.348   1.593
 8154WAT     H224865   2.461   1.244   1.525
 8155WAT      O24866   0.568   2.218   1.376
 8155WAT     H124867   0.559   2.297   1.322
 8155WAT     H224868   0.486   2.170   1.362
 8156WAT      O24869   7.557   2.515   3.386
 8156WAT     H124870   7.549   2.435   3.334
 8156WAT     H224871   7.487   2.509   3.450
 8157WAT      O24872   1.137   4.755   0.736
 8157WAT     H124873   1.218   4.794   0.702
 8157WAT     H224874   1.166   4.684   0.793
 8158WAT      O24875   2.188   3.864   2.294
 8158WAT     H124876   2.281   3.886   2.286
 8158WAT     H224877   2.185   3.800   2.365
 8159WAT      O24878   5.800   0.453   1.979
 8159WAT     H124879   5.707   0.476   1.985
 8159WAT     H224880   5.829   0.447   2.070
 8160WAT      O24881   1.602   0.864   4.225
 8160WAT     H124882   1.507   0.854   4.222
 8160WAT     H224883   1.629   0.821   4.307
 8161WAT      O24884   5.120   0.754   4.024
 8161WAT     H124885   5.152   0.677   4.072
 8161WAT     H224886   5.151   0.741   3.934
 8162WAT      O24887   5.789   3.444   5.928
 8162WAT     H124888   5.845   3.497   5.984
 8162WAT     H224889   5.778   3.496   5.848
 8163WAT      O24890   7.590   5.015   1.626
 8163WAT     H124891   7.580   5.110   1.637
 8163WAT     H224892   7.523   4.991   1.562
 8164WAT      O24893   0.853   0.897   4.623
 8164WAT     H124894   0.935   0.937   4.596
 8164WAT     H224895   0.858   0.807   4.590
 8165WAT      O24896   2.671   0.762   3.314
 8165WAT     H124897   2.750   0.808   3.285
 8165WAT     H224898   2.692   0.732   3.402
 8166WAT      O24899   1.631   0.421   4.683
 8166WAT     H124900   1.597   0.342   4.726
 8166WAT     H224901   1.624   0.402   4.590
 8167WAT      O24902   0.123   4.121   3.864
 8167WAT     H124903   0.176   4.195   3.893
 8167WAT     H224904   0.098   4.143   3.774
 8168WAT      O24905   0.105   2.387   1.555
 8168WAT     H124906   0.080   2.468   1.510
 8168WAT     H224907   0.022   2.344   1.576
 8169WAT      O24908   5.020   7.064   3.318
 8169WAT     H124909   5.019   7.058   3.222
 8169WAT     H224910   5.070   6.988   3.346
 8170WAT      O24911   4.138   1.308   0.575
 8170WAT     H124912   4.201   1.321   0.646
 8170WAT     H224913   4.191   1.311   0.495
 8171WAT      O24914   5.385   4.961   5.796
 8171WAT     H124915   5.414   5.039   5.750
 8171WAT     H224916   5.444   4.954   5.871
 8172WAT      O24917   4.275   2.241   5.858
 8172WAT     H124918   4.212   2.284   5.915
 8172WAT     H224919   4.320   2.313   5.814
 8173WAT      O24920   5.121   6.904   4.931
 8173WAT     H124921   5.096   6.814   4.910
 8173WAT     H224922   5.061   6.958   4.880
 8174WAT      O24923   5.846   1.148   4.868
 8174WAT     H124924   5.869   1.169   4.959
 8174WAT     H224925   5.914   1.089   4.838
 8175WAT      O24926   2.725   2.603   0.943
 8175WAT     H124927   2.809   2.623   0.984
 8175WAT     H224928   2.748   2.556   0.862
 8176WAT      O24929   7.503   4.574   0.209
 8176WAT     H124930   7.583   4.523   0.225
 8176WAT     H224931   7.478   4.606   0.295
 8177WAT      O24932   3.852   4.303   2.268
 8177WAT     H124933   3.875   4.217   2.232
 8177WAT     H224934   3.933   4.354   2.262
 8178WAT      O24935   0.941   1.235   3.278
 8178WAT     H124936   0.937   1.160   3.219
 8178WAT     H224937   1.035   1.251   3.290
 8179WAT      O24938   3.043   3.092   1.045
 8179WAT     H124939   3.051   3.119   0.954
 8179WAT     H224940   2.951   3.106   1.066
 8180WAT      O24941   5.678   7.025   0.554
 8180WAT     H124942   5.699   7.118   0.542
 8180WAT     H224943   5.666   7.015   0.649
 8181WAT      O24944   7.030   1.213   1.146
 8181WAT     H124945   7.108   1.267   1.158
 8181WAT     H224946   7.020   1.167   1.230
 8182WAT      O24947   4.190   1.010   4.945
 8182WAT     H124948   4.219   1.092   4.984
 8182WAT     H224949   4.263   0.950   4.958
 8183WAT      O24950   6.370   3.286   2.890
 8183WAT     H124951   6.316   3.299   2.812
 8183WAT     H224952   6.414   3.202   2.875
 8184WAT      O24953   6.677   2.963   5.464
 8184WAT     H124954   6.595   2.969   5.415
 8184WAT     H224955   6.652   2.924   5.547
 8185WAT      O24956   6.731   5.433   1.483
 8185WAT     H124957   6.736   5.473   1.396
 8185WAT     H224958   6.650   5.382   1.481
 8186WAT      O24959   0.326   2.657   1.567
 8186WAT     H124960   0.305   2.741   1.608
 8186WAT     H224961   0.288   2.663   1.479
 8187WAT      O24962   0.274   3.251   1.366
 8187WAT     H124963   0.250   3.300   1.287
 8187WAT     H224964   0.311   3.317   1.424
 8188WAT      O24965   4.634   4.239   3.372
 8188WAT     H124966   4.558   4.219   3.316
 8188WAT     H224967   4.635   4.168   3.436
 8189WAT      O24968   5.455   2.198   6.008
 8189WAT     H124969   5.466   2.161   6.096
 8189WAT     H224970   5.544   2.204   5.973
 8190WAT      O24971   2.956   6.430   0.958
 8190WAT     H124972   3.035   6.398   0.914
 8190WAT     H224973   2.958   6.387   1.044
 8191WAT      O24974   2.455   3.995   6.152
 8191WAT     H124975   2.479   4.022   6.241
 8191WAT     H224976   2.439   4.077   6.105
 8192WAT      O24977   1.838   4.128   4.116
 8192WAT     H124978   1.875   4.064   4.055
 8192WAT     H224979   1.908   4.191   4.130
 8193WAT      O24980   3.477   1.278   5.414
 8193WAT     H124981   3.384   1.256   5.401
 8193WAT     H224982   3.477   1.372   5.432
 8194WAT      O24983   5.344   4.332   3.068
 8194WAT     H124984   5.424   4.338   3.121
 8194WAT     H224985   5.276   4.306   3.130
 8195WAT      O24986   0.887   1.847   0.663
 8195WAT     H124987   0.973   1.861   0.622
 8195WAT     H224988   0.824   1.868   0.594
 8196WAT      O24989   3.755   0.387   4.253
 8196WAT     H124990   3.819   0.342   4.198
 8196WAT     H224991   3.777   0.480   4.245
 8197WAT      O24992   5.700   0.916   5.024
 8197WAT     H124993   5.753   0.996   5.015
 8197WAT     H224994   5.762   0.849   5.053
 8198WAT      O24995   0.948   6.745   1.742
 8198WAT     H124996   0.861   6.777   1.717
 8198WAT     H224997   1.009   6.794   1.687
 8199WAT      O24998   1.478   0.119   6.037
 8199WAT     H124999   1.429   0.047   6.076
 8199WAT     H225000   1.435   0.134   5.953
 8200WAT      O25001   1.362   4.503   3.572
 8200WAT     H125002   1.405   4.440   3.628
 8200WAT     H225003   1.274   4.468   3.559
 8201WAT      O25004   0.315   6.985   2.063
 8201WAT     H125005   0.405   6.991   2.033
 8201WAT     H225006   0.276   6.918   2.006
 8202WAT      O25007   1.913   6.040   2.021
 8202WAT     H125008   1.865   5.966   2.058
 8202WAT     H225009   1.847   6.109   2.012
 8203WAT      O25010   1.865   1.686   5.575
 8203WAT     H125011   1.933   1.668   5.639
 8203WAT     H225012   1.888   1.632   5.499
 8204WAT      O25013   4.585   4.660   2.842
 8204WAT     H125014   4.550   4.628   2.759
 8204WAT     H225015   4.643   4.731   2.817
 8205WAT      O25016   6.291   3.017   0.210
 8205WAT     H125017   6.358   3.086   0.208
 8205WAT     H225018   6.267   3.004   0.118
 8206WAT      O25019   2.057   6.898   4.346
 8206WAT     H125020   2.066   6.818   4.397
 8206WAT     H225021   2.068   6.871   4.255
 8207WAT      O25022   3.162   0.830   3.888
 8207WAT     H125023   3.185   0.844   3.796
 8207WAT     H225024   3.103   0.902   3.909
 8208WAT      O25025   5.929   3.476   1.046
 8208WAT     H125026   5.886   3.391   1.033
 8208WAT     H225027   6.022   3.456   1.038
 8209WAT      O25028   2.945   5.280   0.102
 8209WAT     H125029   2.913   5.354   0.153
 8209WAT     H225030   3.002   5.319   0.036
 8210WAT      O25031   6.782   4.311   4.569
 8210WAT     H125032   6.726   4.339   4.496
 8210WAT     H225033   6.854   4.374   4.569
 8211WAT      O25034   4.344   0.762   3.160
 8211WAT     H125035   4.278   0.813   3.206
 8211WAT     H225036   4.323   0.773   3.067
 8212WAT      O25037   5.159   3.474   3.202
 8212WAT     H125038   5.228   3.418   3.166
 8212WAT     H225039   5.182   3.483   3.294
 8213WAT      O25040   0.204   1.821   3.139
 8213WAT     H125041   0.201   1.736   3.185
 8213WAT     H225042   0.215   1.798   3.047
 8214WAT      O25043   5.156   1.364   3.654
 8214WAT     H125044   5.143   1.302   3.583
 8214WAT     H225045   5.106   1.441   3.629
 8215WAT      O25046   1.182   1.512   5.652
 8215WAT     H125047   1.110   1.470   5.698
 8215WAT     H225048   1.215   1.445   5.592
 8216WAT      O25049   3.678   1.887   4.734
 8216WAT     H125050   3.587   1.911   4.722
 8216WAT     H225051   3.705   1.850   4.650
 8217WAT      O25052   3.058   4.441   0.904
 8217WAT     H125053   3.000   4.393   0.964
 8217WAT     H225054   3.125   4.479   0.961
 8218WAT      O25055   6.304   6.638   0.646
 8218WAT     H125056   6.295   6.632   0.550
 8218WAT     H225057   6.230   6.692   0.673
 8219WAT      O25058   5.059   0.561   1.167
 8219WAT     H125059   5.041   0.503   1.093
 8219WAT     H225060   4.984   0.621   1.170
 8220WAT      O25061   0.651   3.205   1.602
 8220WAT     H125062   0.700   3.125   1.583
 8220WAT     H225063   0.641   3.247   1.516
 8221WAT      O25064   5.770   2.723   1.399
 8221WAT     H125065   5.731   2.669   1.330
 8221WAT     H225066   5.796   2.804   1.355
 8222WAT      O25067   7.511   2.448   2.444
 8222WAT     H125068   7.603   2.430   2.423
 8222WAT     H225069   7.482   2.509   2.376
 8223WAT      O25070   1.703   3.967   5.742
 8223WAT     H125071   1.794   3.955   5.767
 8223WAT     H225072   1.688   3.900   5.675
 8224WAT      O25073   3.233   0.742   0.579
 8224WAT     H125074   3.278   0.661   0.600
 8224WAT     H225075   3.286   0.783   0.511
 8225WAT      O25076   0.329   1.283   4.475
 8225WAT     H125077   0.367   1.212   4.423
 8225WAT     H225078   0.383   1.359   4.454
 8226WAT      O25079   3.848   0.994   3.436
 8226WAT     H125080   3.830   1.084   3.463
 8226WAT     H225081   3.916   0.964   3.496
 8227WAT      O25082   0.897   1.919   5.038
 8227WAT     H125083   0.957   1.898   5.110
 8227WAT     H225084   0.814   1.938   5.081
 8228WAT      O25085   0.680   6.559   3.665
 8228WAT     H125086   0.642   6.497   3.602
 8228WAT     H225087   0.612   6.570   3.731
 8229WAT      O25088   0.874   2.826   2.825
 8229WAT     H125089   0.900   2.823   2.733
 8229WAT     H225090   0.903   2.913   2.855
 8230WAT      O25091   0.853   4.220   0.133
 8230WAT     H125092   0.765   4.252   0.153
 8230WAT     H225093   0.838   4.132   0.097
 8231WAT      O25094   7.232   1.953   1.331
 8231WAT     H125095   7.180   1.908   1.398
 8231WAT     H225096   7.222   2.046   1.352
 8232WAT      O25097   2.847   4.060   1.324
 8232WAT     H125098   2.792   4.034   1.250
 8232WAT     H225099   2.934   4.075   1.285
 8233WAT      O25100   4.023   4.543   2.233
 8233WAT     H125101   3.986   4.615   2.182
 8233WAT     H225102   4.112   4.533   2.199
 8234WAT      O25103   7.436   3.409   5.503
 8234WAT     H125104   7.501   3.379   5.441
 8234WAT     H225105   7.392   3.329   5.533
 8235WAT      O25106   2.800   6.235   5.186
 8235WAT     H125107   2.781   6.270   5.274
 8235WAT     H225108   2.843   6.151   5.203
 8236WAT      O25109   5.798   1.831   5.267
 8236WAT     H125110   5.746   1.755   5.239
 8236WAT     H225111   5.803   1.887   5.190
 8237WAT      O25112   0.161   3.270   3.078
 8237WAT     H125113   0.116   3.233   3.001
 8237WAT     H225114   0.127   3.219   3.152
 8238WAT      O25115   0.331   6.086   2.170
 8238WAT     H125116   0.262   6.022   2.151
 8238WAT     H225117   0.411   6.046   2.135
 8239WAT      O25118   2.101   7.096   4.805
 8239WAT     H125119   2.040   7.036   4.849
 8239WAT     H225120   2.127   7.158   4.873
 8240WAT      O25121   6.016   0.649   5.841
 8240WAT     H125122   5.990   0.741   5.838
 8240WAT     H225123   6.078   0.639   5.769
 8241WAT      O25124   4.119   6.343   0.837
 8241WAT     H125125   4.210   6.344   0.869
 8241WAT     H225126   4.123   6.391   0.754
 8242WAT      O25127   4.225   4.350   5.192
 8242WAT     H125128   4.152   4.305   5.150
 8242WAT     H225129   4.249   4.419   5.131
 8243WAT      O25130   5.090   1.381   1.931
 8243WAT     H125131   5.118   1.444   1.998
 8243WAT     H225132   5.136   1.409   1.852
 8244WAT      O25133   0.553   5.393   2.201
 8244WAT     H125134   0.539   5.302   2.173
 8244WAT     H225135   0.508   5.445   2.135
 8245WAT      O25136   7.310   1.484   0.526
 8245WAT     H125137   7.273   1.459   0.442
 8245WAT     H225138   7.404   1.494   0.509
 8246WAT      O25139   2.399   3.465   5.675
 8246WAT     H125140   2.372   3.400   5.610
 8246WAT     H225141   2.470   3.513   5.633
 8247WAT      O25142   5.133   5.340   4.035
 8247WAT     H125143   5.182   5.341   3.953
 8247WAT     H225144   5.136   5.431   4.065
 8248WAT      O25145   1.439   2.435   0.395
 8248WAT     H125146   1.350   2.447   0.362
 8248WAT     H225147   1.492   2.423   0.316
 8249WAT      O25148   4.240   6.087   4.361
 8249WAT     H125149   4.193   6.142   4.298
 8249WAT     H225150   4.172   6.056   4.421
 8250WAT      O25151   5.199   2.318   4.828
 8250WAT     H125152   5.108   2.309   4.799
 8250WAT     H225153   5.193   2.334   4.923
 8251WAT      O25154   4.867   5.023   6.175
 8251WAT     H125155   4.954   5.058   6.196
 8251WAT     H225156   4.885   4.943   6.125
 8252WAT      O25157   3.184   4.365   1.462
 8252WAT     H125158   3.121   4.297   1.440
 8252WAT     H225159   3.251   4.320   1.515
 8253WAT      O25160   0.215   3.957   3.151
 8253WAT     H125161   0.306   3.928   3.144
 8253WAT     H225162   0.219   4.039   3.199
 8254WAT      O25163   4.094   4.396   3.389
 8254WAT     H125164   4.101   4.352   3.305
 8254WAT     H225165   4.165   4.460   3.389
 8255WAT      O25166   4.724   4.798   1.178
 8255WAT     H125167   4.725   4.703   1.172
 8255WAT     H225168   4.674   4.827   1.101
 8256WAT      O25169   6.393   1.051   3.748
 8256WAT     H125170   6.381   1.094   3.663
 8256WAT     H225171   6.308   1.012   3.767
 8257WAT      O25172   1.150   5.316   4.160
 8257WAT     H125173   1.076   5.317   4.099
 8257WAT     H225174   1.116   5.273   4.238
 8258WAT      O25175   6.731   1.448   4.691
 8258WAT     H125176   6.663   1.457   4.757
 8258WAT     H225177   6.733   1.355   4.671
 8259WAT      O25178   0.651   1.223   4.698
 8259WAT     H125179   0.672   1.247   4.788
 8259WAT     H225180   0.690   1.292   4.645
 8260WAT      O25181   5.638   5.726   2.029
 8260WAT     H125182   5.618   5.814   2.062
 8260WAT     H225183   5.625   5.733   1.934
 8261WAT      O25184   3.604   7.161   2.959
 8261WAT     H125185   3.581   7.241   2.911
 8261WAT     H225186   3.534   7.150   3.023
 8262WAT      O25187   4.079   6.025   4.095
 8262WAT     H125188   4.158   6.042   4.044
 8262WAT     H225189   4.044   6.112   4.114
 8263WAT      O25190   5.829   4.085   0.923
 8263WAT     H125191   5.754   4.123   0.879
 8263WAT     H225192   5.900   4.147   0.907
 8264WAT      O25193   4.670   2.963   4.784
 8264WAT     H125194   4.646   2.870   4.790
 8264WAT     H225195   4.713   2.971   4.699
 8265WAT      O25196   6.924   4.646   0.317
 8265WAT     H125197   6.945   4.734   0.286
 8265WAT     H225198   6.888   4.660   0.405
 8266WAT      O25199   0.995   4.529   5.030
 8266WAT     H125200   0.994   4.472   4.953
 8266WAT     H225201   0.952   4.478   5.098
 8267WAT      O25202   2.623   3.538   5.513
 8267WAT     H125203   2.715   3.567   5.511
 8267WAT     H225204   2.577   3.601   5.459
 8268WAT      O25205   2.801   5.719   0.518
 8268WAT     H125206   2.881   5.667   0.528
 8268WAT     H225207   2.741   5.660   0.472
 8269WAT      O25208   3.988   1.878   4.453
 8269WAT     H125209   4.074   1.837   4.460
 8269WAT     H225210   3.973   1.917   4.539
 8270WAT      O25211   2.850   3.282   2.664
 8270WAT     H125212   2.786   3.295   2.733
 8270WAT     H225213   2.905   3.210   2.696
 8271WAT      O25214   4.377   4.897   3.147
 8271WAT     H125215   4.303   4.882   3.206
 8271WAT     H225216   4.339   4.891   3.059
 8272WAT      O25217   7.268   1.156   5.786
 8272WAT     H125218   7.278   1.251   5.793
 8272WAT     H225219   7.336   1.131   5.723
 8273WAT      O25220   4.316   7.019   2.994
 8273WAT     H125221   4.323   7.069   2.913
 8273WAT     H225222   4.329   7.083   3.063
 8274WAT      O25223   4.941   6.634   2.021
 8274WAT     H125224   4.976   6.578   1.951
 8274WAT     H225225   4.857   6.664   1.987
 8275WAT      O25226   4.311   7.049   2.445
 8275WAT     H125227   4.230   6.999   2.460
 8275WAT     H225228   4.378   6.982   2.432
 8276WAT      O25229   3.535   5.062   5.992
 8276WAT     H125230   3.625   5.030   6.005
 8276WAT     H225231   3.528   5.072   5.897
 8277WAT      O25232   3.122   2.779   2.880
 8277WAT     H125233   3.153   2.864   2.912
 8277WAT     H225234   3.098   2.795   2.789
 8278WAT      O25235   5.456   3.031   0.864
 8278WAT     H125236   5.384   3.064   0.810
 8278WAT     H225237   5.419   3.026   0.952
 8279WAT      O25238   3.174   0.487   3.438
 8279WAT     H125239   3.088   0.451   3.417
 8279WAT     H225240   3.180   0.568   3.386
 8280WAT      O25241   4.222   4.475   4.361
 8280WAT     H125242   4.239   4.569   4.355
 8280WAT     H225243   4.266   4.448   4.442
 8281WAT      O25244   7.109   2.463   2.136
 8281WAT     H125245   7.201   2.441   2.149
 8281WAT     H225246   7.082   2.407   2.062
 8282WAT      O25247   1.390   7.140   0.769
 8282WAT     H125248   1.310   7.171   0.727
 8282WAT     H225249   1.380   7.164   0.861
 8283WAT      O25250   2.450   0.841   4.730
 8283WAT     H125251   2.359   0.870   4.729
 8283WAT     H225252   2.446   0.747   4.747
 8284WAT      O25253   1.980   6.544   3.634
 8284WAT     H125254   1.993   6.460   3.677
 8284WAT     H225255   1.968   6.523   3.542
 8285WAT      O25256   6.303   4.128   0.912
 8285WAT     H125257   6.298   4.203   0.972
 8285WAT     H225258   6.316   4.167   0.826
 8286WAT      O25259   3.275   5.563   2.602
 8286WAT     H125260   3.332   5.584   2.528
 8286WAT     H225261   3.199   5.520   2.563
 8287WAT      O25262   1.082   1.007   4.558
 8287WAT     H125263   1.073   1.065   4.481
 8287WAT     H225264   1.144   1.052   4.615
 8288WAT      O25265   2.627   4.397   1.438
 8288WAT     H125266   2.588   4.349   1.365
 8288WAT     H225267   2.592   4.486   1.431
 8289WAT      O25268   5.181   0.017   1.390
 8289WAT     H125269   5.178   0.090   1.328
 8289WAT     H225270   5.267  -0.023   1.378
 8290WAT      O25271   2.770   0.726   2.651
 8290WAT     H125272   2.787   0.722   2.745
 8290WAT     H225273   2.808   0.809   2.623
 8291WAT      O25274   1.554   0.215   3.180
 8291WAT     H125275   1.472   0.166   3.170
 8291WAT     H225276   1.527   0.305   3.194
 8292WAT      O25277   0.808   2.076   0.844
 8292WAT     H125278   0.761   2.121   0.775
 8292WAT     H225279   0.856   2.006   0.799
 8293WAT      O25280   0.721   4.821   3.656
 8293WAT     H125281   0.802   4.864   3.685
 8293WAT     H225282   0.675   4.888   3.605
 8294WAT      O25283   1.162   4.966   1.702
 8294WAT     H125284   1.163   5.062   1.701
 8294WAT     H225285   1.248   4.942   1.734
 8295WAT      O25286   4.218   4.592   5.901
 8295WAT     H125287   4.167   4.525   5.948
 8295WAT     H225288   4.177   4.596   5.815
 8296WAT      O25289   6.651   6.997   3.236
 8296WAT     H125290   6.658   6.924   3.174
 8296WAT     H225291   6.709   7.064   3.200
 8297WAT      O25292   1.198   2.688   4.112
 8297WAT     H125293   1.237   2.774   4.098
 8297WAT     H225294   1.199   2.647   4.026
 8298WAT      O25295   6.708   2.232   5.475
 8298WAT     H125296   6.656   2.278   5.542
 8298WAT     H225297   6.778   2.292   5.454
 8299WAT      O25298   0.052   5.516   0.308
 8299WAT     H125299   0.109   5.446   0.341
 8299WAT     H225300   0.046   5.499   0.214
 8300WAT      O25301   2.166   4.861   4.415
 8300WAT     H125302   2.172   4.849   4.321
 8300WAT     H225303   2.098   4.800   4.443
 8301WAT      O25304   2.501   2.674   0.018
 8301WAT     H125305   2.434   2.741   0.001
 8301WAT     H225306   2.465   2.594  -0.019
 8302WAT      O25307   6.377   3.508   6.219
 8302WAT     H125308   6.300   3.548   6.259
 8302WAT     H225309   6.447   3.571   6.233
 8303WAT      O25310   5.200   1.843   2.065
 8303WAT     H125311   5.137   1.805   2.126
 8303WAT     H225312   5.187   1.794   1.984
 8304WAT      O25313   6.971   7.025   2.729
 8304WAT     H125314   6.919   7.001   2.652
 8304WAT     H225315   7.053   7.059   2.693
 8305WAT      O25316   2.011   0.725   4.702
 8305WAT     H125317   1.970   0.641   4.723
 8305WAT     H225318   2.068   0.705   4.628
 8306WAT      O25319   5.903   6.308   5.783
 8306WAT     H125320   5.853   6.282   5.705
 8306WAT     H225321   5.855   6.384   5.817
 8307WAT      O25322   3.805   4.753   2.357
 8307WAT     H125323   3.797   4.734   2.263
 8307WAT     H225324   3.894   4.787   2.367
 8308WAT      O25325   0.159   0.161   4.246
 8308WAT     H125326   0.253   0.178   4.251
 8308WAT     H225327   0.130   0.158   4.337
 8309WAT      O25328   2.878   3.417   0.780
 8309WAT     H125329   2.855   3.417   0.873
 8309WAT     H225330   2.917   3.503   0.766
 8310WAT      O25331   0.160   5.510   1.829
 8310WAT     H125332   0.128   5.587   1.783
 8310WAT     H225333   0.233   5.479   1.776
 8311WAT      O25334   7.436   3.064   5.720
 8311WAT     H125335   7.353   3.095   5.685
 8311WAT     H225336   7.439   2.971   5.697
 8312WAT      O25337   1.960   0.922   5.996
 8312WAT     H125338   1.904   0.983   6.044
 8312WAT     H225339   1.947   0.838   6.041
 8313WAT      O25340   7.621   1.724   0.176
 8313WAT     H125341   7.625   1.631   0.152
 8313WAT     H225342   7.581   1.725   0.263
 8314WAT      O25343   4.355   3.441   2.143
 8314WAT     H125344   4.261   3.433   2.127
 8314WAT     H225345   4.391   3.470   2.060
 8315WAT      O25346   3.197   1.061   4.167
 8315WAT     H125347   3.104   1.043   4.178
 8315WAT     H225348   3.208   1.077   4.073
 8316WAT      O25349   2.871   4.534   0.664
 8316WAT     H125350   2.937   4.495   0.722
 8316WAT     H225351   2.898   4.507   0.576
 8317WAT      O25352   2.562   6.672   1.559
 8317WAT     H125353   2.546   6.687   1.465
 8317WAT     H225354   2.606   6.588   1.562
 8318WAT      O25355   7.566   4.477   3.360
 8318WAT     H125356   7.526   4.406   3.409
 8318WAT     H225357   7.493   4.535   3.336
 8319WAT      O25358   6.104   3.649   3.695
 8319WAT     H125359   6.181   3.592   3.691
 8319WAT     H225360   6.055   3.618   3.770
 8320WAT      O25361   6.305   5.187   1.886
 8320WAT     H125362   6.279   5.232   1.806
 8320WAT     H225363   6.397   5.165   1.873
 8321WAT      O25364   7.586   3.400   2.444
 8321WAT     H125365   7.520   3.469   2.451
 8321WAT     H225366   7.623   3.411   2.357
 8322WAT      O25367   2.594   1.740   0.201
 8322WAT     H125368   2.510   1.776   0.227
 8322WAT     H225369   2.594   1.746   0.105
 8323WAT      O25370   4.840   0.620   4.238
 8323WAT     H125371   4.859   0.672   4.160
 8323WAT     H225372   4.815   0.683   4.305
 8324WAT      O25373   0.122   4.019   5.467
 8324WAT     H125374   0.211   4.032   5.435
 8324WAT     H225375   0.084   3.953   5.408
 8325WAT      O25376   2.587   6.785   2.808
 8325WAT     H125377   2.656   6.764   2.872
 8325WAT     H225378   2.582   6.707   2.753
 8326WAT      O25379   2.913   5.444   3.892
 8326WAT     H125380   2.906   5.453   3.797
 8326WAT     H225381   2.824   5.425   3.922
 8327WAT      O25382   1.949   4.399   5.395
 8327WAT     H125383   1.968   4.484   5.436
 8327WAT     H225384   1.854   4.398   5.386
 8328WAT      O25385   5.206   0.153   6.200
 8328WAT     H125386   5.202   0.061   6.175
 8328WAT     H225387   5.222   0.151   6.294
 8329WAT      O25388   3.244   5.059   1.079
 8329WAT     H125389   3.268   4.967   1.077
 8329WAT     H225390   3.150   5.060   1.059
 8330WAT      O25391   2.822   7.034   6.047
 8330WAT     H125392   2.813   7.129   6.041
 8330WAT     H225393   2.735   7.000   6.026
 8331WAT      O25394   7.409   0.537   4.115
 8331WAT     H125395   7.349   0.480   4.067
 8331WAT     H225396   7.386   0.625   4.087
 8332WAT      O25397   3.188   2.654   1.179
 8332WAT     H125398   3.275   2.614   1.172
 8332WAT     H225399   3.204   2.747   1.169
 8333WAT      O25400   6.520   3.787   5.365
 8333WAT     H125401   6.473   3.825   5.291
 8333WAT     H225402   6.466   3.808   5.442
 8334WAT      O25403   1.000   6.859   3.818
 8334WAT     H125404   0.984   6.824   3.730
 8334WAT     H225405   1.083   6.905   3.810
 8335WAT      O25406   7.002   2.431   2.550
 8335WAT     H125407   6.974   2.453   2.461
 8335WAT     H225408   6.953   2.491   2.606
 8336WAT      O25409   4.989   5.384   3.250
 8336WAT     H125410   5.011   5.464   3.203
 8336WAT     H225411   4.976   5.319   3.180
 8337WAT      O25412   1.984   6.551   4.232
 8337WAT     H125413   1.954   6.621   4.174
 8337WAT     H225414   2.040   6.496   4.177
 8338WAT      O25415   0.759   2.073   0.438
 8338WAT     H125416   0.758   2.022   0.358
 8338WAT     H225417   0.666   2.081   0.462
 8339WAT      O25418   0.728   1.664   4.433
 8339WAT     H125419   0.703   1.734   4.373
 8339WAT     H225420   0.817   1.641   4.407
 8340WAT      O25421   3.320   5.927   0.805
 8340WAT     H125422   3.260   5.870   0.757
 8340WAT     H225423   3.301   6.015   0.773
 8341WAT      O25424   5.444   1.547   5.513
 8341WAT     H125425   5.409   1.463   5.485
 8341WAT     H225426   5.401   1.564   5.597
 8342WAT      O25427   5.742   4.697   2.092
 8342WAT     H125428   5.657   4.680   2.049
 8342WAT     H225429   5.781   4.766   2.038
 8343WAT      O25430   5.215   3.724   2.993
 8343WAT     H125431   5.205   3.819   2.984
 8343WAT     H225432   5.191   3.689   2.907
 8344WAT      O25433   2.224   0.052   0.081
 8344WAT     H125434   2.203   0.098   0.000
 8344WAT     H225435   2.252   0.121   0.141
 8345WAT      O25436   1.914   5.453   0.711
 8345WAT     H125437   1.873   5.383   0.761
 8345WAT     H225438   1.989   5.411   0.668
 8346WAT      O25439   7.284   3.973   1.299
 8346WAT     H125440   7.222   3.973   1.226
 8346WAT     H225441   7.366   4.004   1.260
 8347WAT      O25442   2.935   0.807   1.094
 8347WAT     H125443   2.978   0.805   1.009
 8347WAT     H225444   2.867   0.740   1.089
 8348WAT      O25445   6.311   6.118   6.153
 8348WAT     H125446   6.367   6.163   6.217
 8348WAT     H225447   6.362   6.119   6.072
 8349WAT      O25448   3.599   4.246   2.400
 8349WAT     H125449   3.565   4.157   2.404
 8349WAT     H225450   3.687   4.238   2.365
 8350WAT      O25451   0.418   5.197   3.038
 8350WAT     H125452   0.383   5.222   2.952
 8350WAT     H225453   0.362   5.243   3.101
 8351WAT      O25454   2.401   6.033   0.647
 8351WAT     H125455   2.495   6.046   0.657
 8351WAT     H225456   2.386   6.036   0.552
 8352WAT      O25457   7.422   2.919   4.432
 8352WAT     H125458   7.393   2.829   4.416
 8352WAT     H225459   7.400   2.966   4.352
 8353WAT      O25460   2.990   0.457   2.083
 8353WAT     H125461   3.036   0.533   2.046
 8353WAT     H225462   3.046   0.382   2.062
 8354WAT      O25463   5.030   2.705   2.668
 8354WAT     H125464   5.010   2.764   2.596
 8354WAT     H225465   5.093   2.753   2.722
 8355WAT      O25466   1.508   4.600   3.226
 8355WAT     H125467   1.533   4.508   3.216
 8355WAT     H225468   1.536   4.641   3.144
 8356WAT      O25469   4.856   6.839   3.526
 8356WAT     H125470   4.829   6.814   3.438
 8356WAT     H225471   4.828   6.766   3.582
 8357WAT      O25472   5.855   3.787   3.394
 8357WAT     H125473   5.765   3.817   3.381
 8357WAT     H225474   5.878   3.744   3.312
 8358WAT      O25475   0.605   5.517   4.694
 8358WAT     H125476   0.697   5.500   4.716
 8358WAT     H225477   0.584   5.454   4.627
 8359WAT      O25478   4.335   5.840   4.963
 8359WAT     H125479   4.326   5.745   4.969
 8359WAT     H225480   4.426   5.854   4.938
 8360WAT      O25481   3.627   5.287   5.546
 8360WAT     H125482   3.556   5.269   5.483
 8360WAT     H225483   3.614   5.221   5.615
 8361WAT      O25484   2.743   3.805   1.839
 8361WAT     H125485   2.673   3.777   1.898
 8361WAT     H225486   2.737   3.901   1.839
 8362WAT      O25487   2.731   4.620   4.458
 8362WAT     H125488   2.757   4.614   4.366
 8362WAT     H225489   2.638   4.645   4.454
 8363WAT      O25490   4.234   2.168   6.201
 8363WAT     H125491   4.307   2.149   6.142
 8363WAT     H225492   4.221   2.262   6.194
 8364WAT      O25493   5.036   2.129   4.196
 8364WAT     H125494   5.044   2.111   4.102
 8364WAT     H225495   5.055   2.223   4.204
 8365WAT      O25496   6.209   5.906   5.116
 8365WAT     H125497   6.202   5.892   5.210
 8365WAT     H225498   6.167   5.829   5.077
 8366WAT      O25499   6.344   2.660   2.894
 8366WAT     H125500   6.373   2.738   2.847
 8366WAT     H225501   6.250   2.671   2.905
 8367WAT      O25502   2.516   4.405   1.972
 8367WAT     H125503   2.489   4.416   1.881
 8367WAT     H225504   2.578   4.476   1.988
 8368WAT      O25505   3.956   1.417   2.699
 8368WAT     H125506   3.962   1.420   2.604
 8368WAT     H225507   3.962   1.324   2.721
 8369WAT      O25508   7.001   6.438   4.543
 8369WAT     H125509   6.997   6.345   4.520
 8369WAT     H225510   6.923   6.476   4.503
 8370WAT      O25511   0.357   5.164   4.736
 8370WAT     H125512   0.358   5.201   4.648
 8370WAT     H225513   0.330   5.237   4.792
 8371WAT      O25514   3.462   1.609   3.537
 8371WAT     H125515   3.453   1.663   3.459
 8371WAT     H225516   3.498   1.526   3.505
 8372WAT      O25517   0.519   0.054   1.783
 8372WAT     H125518   0.526   0.147   1.762
 8372WAT     H225519   0.466   0.052   1.862
 8373WAT      O25520   4.953   5.707   2.117
 8373WAT     H125521   4.898   5.673   2.046
 8373WAT     H225522   5.030   5.741   2.073
 8374WAT      O25523   7.453   1.537   6.070
 8374WAT     H125524   7.533   1.553   6.019
 8374WAT     H225525   7.443   1.615   6.124
 8375WAT      O25526   4.191   0.765   1.206
 8375WAT     H125527   4.250   0.837   1.228
 8375WAT     H225528   4.226   0.730   1.124
 8376WAT      O25529   0.696   3.827   0.541
 8376WAT     H125530   0.742   3.759   0.590
 8376WAT     H225531   0.760   3.897   0.531
 8377WAT      O25532   6.003   5.905   5.774
 8377WAT     H125533   6.051   5.986   5.790
 8377WAT     H225534   5.911   5.928   5.786
 8378WAT      O25535   6.437   3.266   4.512
 8378WAT     H125536   6.493   3.342   4.497
 8378WAT     H225537   6.396   3.250   4.427
 8379WAT      O25538   6.975   1.261   3.916
 8379WAT     H125539   6.946   1.173   3.894
 8379WAT     H225540   6.915   1.288   3.986
 8380WAT      O25541   6.930   2.526   4.379
 8380WAT     H125542   6.981   2.606   4.380
 8380WAT     H225543   6.839   2.555   4.383
 8381WAT      O25544   0.260   2.371   1.779
 8381WAT     H125545   0.350   2.359   1.748
 8381WAT     H225546   0.207   2.372   1.699
 8382WAT      O25547   0.286   1.718   3.836
 8382WAT     H125548   0.369   1.679   3.807
 8382WAT     H225549   0.287   1.709   3.931
 8383WAT      O25550   7.325   4.721   5.302
 8383WAT     H125551   7.411   4.745   5.268
 8383WAT     H225552   7.267   4.724   5.226
 8384WAT      O25553   5.888   0.690   6.226
 8384WAT     H125554   5.846   0.624   6.281
 8384WAT     H225555   5.982   0.670   6.231
 8385WAT      O25556   1.007   5.849   2.108
 8385WAT     H125557   1.073   5.873   2.174
 8385WAT     H225558   1.004   5.924   2.048
 8386WAT      O25559   5.912   4.160   0.548
 8386WAT     H125560   5.920   4.137   0.456
 8386WAT     H225561   5.818   4.155   0.566
 8387WAT      O25562   4.366   5.232   5.828
 8387WAT     H125563   4.337   5.165   5.766
 8387WAT     H225564   4.286   5.278   5.853
 8388WAT      O25565   3.293   6.708   5.659
 8388WAT     H125566   3.363   6.649   5.630
 8388WAT     H225567   3.301   6.710   5.754
 8389WAT      O25568   4.825   0.713   0.694
 8389WAT     H125569   4.906   0.690   0.648
 8389WAT     H225570   4.755   0.697   0.631
 8390WAT      O25571   1.452   0.649   1.933
 8390WAT     H125572   1.460   0.555   1.923
 8390WAT     H225573   1.462   0.684   1.844
 8391WAT      O25574   2.854   0.930   2.895
 8391WAT     H125575   2.892   0.879   2.967
 8391WAT     H225576   2.914   0.915   2.822
 8392WAT      O25577   3.793   6.715   0.203
 8392WAT     H125578   3.861   6.721   0.136
 8392WAT     H225579   3.784   6.622   0.221
 8393WAT      O25580   6.142   3.712   6.128
 8393WAT     H125581   6.167   3.797   6.091
 8393WAT     H225582   6.152   3.651   6.055
 8394WAT      O25583   4.016   5.791   0.097
 8394WAT     H125584   4.041   5.742   0.018
 8394WAT     H225585   4.060   5.746   0.169
 8395WAT      O25586   2.327   4.392   4.290
 8395WAT     H125587   2.352   4.451   4.218
 8395WAT     H225588   2.284   4.449   4.354
 8396WAT      O25589   5.482   5.606   2.371
 8396WAT     H125590   5.515   5.560   2.294
 8396WAT     H225591   5.394   5.634   2.345
 8397WAT      O25592   2.895   5.863   4.669
 8397WAT     H125593   2.813   5.867   4.718
 8397WAT     H225594   2.902   5.948   4.626
 8398WAT      O25595   1.308   5.046   2.818
 8398WAT     H125596   1.280   5.125   2.772
 8398WAT     H225597   1.299   4.976   2.753
 8399WAT      O25598   4.231   4.972   5.328
 8399WAT     H125599   4.161   4.908   5.331
 8399WAT     H225600   4.211   5.027   5.253
 8400WAT      O25601   0.110   0.455   0.437
 8400WAT     H125602   0.027   0.427   0.398
 8400WAT     H225603   0.177   0.409   0.387
 8401WAT      O25604   3.166   2.062   1.834
 8401WAT     H125605   3.186   2.153   1.813
 8401WAT     H225606   3.092   2.068   1.895
 8402WAT      O25607   5.233   3.544   3.782
 8402WAT     H125608   5.287   3.470   3.810
 8402WAT     H225609   5.259   3.560   3.691
 8403WAT      O25610   4.028   0.358   5.639
 8403WAT     H125611   4.037   0.408   5.558
 8403WAT     H225612   4.091   0.286   5.630
 8404WAT      O25613   5.342   5.650   0.597
 8404WAT     H125614   5.419   5.706   0.601
 8404WAT     H225615   5.270   5.710   0.576
 8405WAT      O25616   3.674   2.746   4.575
 8405WAT     H125617   3.717   2.731   4.491
 8405WAT     H225618   3.663   2.841   4.579
 8406WAT      O25619   4.365   5.844   2.502
 8406WAT     H125620   4.454   5.862   2.473
 8406WAT     H225621   4.348   5.754   2.474
 8407WAT      O25622   0.707   2.849   5.841
 8407WAT     H125623   0.735   2.779   5.780
 8407WAT     H225624   0.722   2.930   5.792
 8408WAT      O25625   1.180   5.769   1.077
 8408WAT     H125626   1.211   5.800   0.992
 8408WAT     H225627   1.084   5.771   1.069
 8409WAT      O25628   2.740   4.637   3.369
 8409WAT     H125629   2.652   4.649   3.403
 8409WAT     H225630   2.757   4.717   3.318
 8410WAT      O25631   6.593   6.904   4.788
 8410WAT     H125632   6.576   6.821   4.832
 8410WAT     H225633   6.559   6.970   4.847
 8411WAT      O25634   6.073   7.027   4.958
 8411WAT     H125635   6.038   7.060   5.041
 8411WAT     H225636   5.996   7.002   4.908
 8412WAT      O25637   5.027   3.303   1.855
 8412WAT     H125638   4.936   3.320   1.878
 8412WAT     H225639   5.050   3.224   1.905
 8413WAT      O25640   3.596   0.416   2.457
 8413WAT     H125641   3.531   0.452   2.397
 8413WAT     H225642   3.671   0.474   2.449
 8414WAT      O25643   5.136   5.475   6.193
 8414WAT     H125644   5.133   5.429   6.277
 8414WAT     H225645   5.065   5.539   6.199
 8415WAT      O25646   7.479   3.572   0.620
 8415WAT     H125647   7.556   3.530   0.659
 8415WAT     H225648   7.506   3.592   0.530
 8416WAT      O25649   0.885   3.094   5.178
 8416WAT     H125650   0.946   3.091   5.104
 8416WAT     H225651   0.876   3.003   5.205
 8417WAT      O25652   2.683   1.029   5.565
 8417WAT     H125653   2.615   1.096   5.579
 8417WAT     H225654   2.646   0.971   5.498
 8418WAT      O25655   7.201   0.474   0.179
 8418WAT     H125656   7.107   0.455   0.168
 8418WAT     H225657   7.224   0.524   0.101
 8419WAT      O25658   6.589   0.353   3.012
 8419WAT     H125659   6.511   0.308   3.047
 8419WAT     H225660   6.632   0.390   3.090
 8420WAT      O25661   3.309   6.163   0.379
 8420WAT     H125662   3.303   6.182   0.285
 8420WAT     H225663   3.225   6.121   0.400
 8421WAT      O25664   7.412   3.646   3.101
 8421WAT     H125665   7.505   3.662   3.115
 8421WAT     H225666   7.404   3.630   3.007
 8422WAT      O25667   2.330   6.417   0.430
 8422WAT     H125668   2.311   6.336   0.383
 8422WAT     H225669   2.332   6.484   0.362
 8423WAT      O25670   2.276   5.572   5.002
 8423WAT     H125671   2.316   5.652   5.036
 8423WAT     H225672   2.217   5.603   4.933
 8424WAT      O25673   1.980   1.149   5.649
 8424WAT     H125674   2.060   1.153   5.702
 8424WAT     H225675   2.004   1.187   5.565
 8425WAT      O25676   6.825   5.742   5.344
 8425WAT     H125677   6.839   5.831   5.375
 8425WAT     H225678   6.838   5.687   5.421
 8426WAT      O25679   6.738   6.669   3.964
 8426WAT     H125680   6.676   6.662   3.891
 8426WAT     H225681   6.824   6.669   3.922
 8427WAT      O25682   6.005   6.952   0.944
 8427WAT     H125683   6.000   6.971   1.037
 8427WAT     H225684   5.915   6.929   0.919
 8428WAT      O25685   4.625   5.895   2.397
 8428WAT     H125686   4.641   5.839   2.321
 8428WAT     H225687   4.651   5.983   2.367
 8429WAT      O25688   1.842   6.042   1.107
 8429WAT     H125689   1.917   6.084   1.064
 8429WAT     H225690   1.880   5.998   1.183
 8430WAT      O25691   0.027   6.889   3.888
 8430WAT     H125692   0.028   6.951   3.960
 8430WAT     H225693  -0.066   6.877   3.868
 8431WAT      O25694   0.119   2.547   3.149
 8431WAT     H125695   0.031   2.510   3.158
 8431WAT     H225696   0.169   2.506   3.220
 8432WAT      O25697   7.267   2.727   2.784
 8432WAT     H125698   7.206   2.788   2.742
 8432WAT     H225699   7.275   2.655   2.721
 8433WAT      O25700   0.677   0.402   4.502
 8433WAT     H125701   0.610   0.334   4.507
 8433WAT     H225702   0.635   0.480   4.538
 8434WAT      O25703   5.619   2.604   1.035
 8434WAT     H125704   5.590   2.631   0.947
 8434WAT     H225705   5.539   2.580   1.080
 8435WAT      O25706   5.257   6.118   4.929
 8435WAT     H125707   5.308   6.065   4.990
 8435WAT     H225708   5.174   6.136   4.974
 8436WAT      O25709   2.223   1.188   5.774
 8436WAT     H125710   2.197   1.280   5.777
 8436WAT     H225711   2.270   1.179   5.691
 8437WAT      O25712   7.118   6.556   0.007
 8437WAT     H125713   7.041   6.500  -0.002
 8437WAT     H225714   7.085   6.645  -0.008
 8438WAT      O25715   5.021   0.995   2.248
 8438WAT     H125716   4.939   1.043   2.237
 8438WAT     H225717   4.997   0.903   2.236
 8439WAT      O25718   3.131   1.042   4.563
 8439WAT     H125719   3.037   1.030   4.548
 8439WAT     H225720   3.139   1.051   4.658
 8440WAT      O25721   5.890   2.744   5.475
 8440WAT     H125722   5.954   2.673   5.483
 8440WAT     H225723   5.920   2.796   5.401
 8441WAT      O25724   6.156   3.545   5.908
 8441WAT     H125725   6.172   3.456   5.876
 8441WAT     H225726   6.130   3.594   5.829
 8442WAT      O25727   6.126   3.200   3.128
 8442WAT     H125728   6.163   3.148   3.057
 8442WAT     H225729   6.033   3.179   3.128
 8443WAT      O25730   2.535   0.496   4.555
 8443WAT     H125731   2.630   0.505   4.562
 8443WAT     H225732   2.501   0.541   4.632
 8444WAT      O25733   5.353   2.395   0.194
 8444WAT     H125734   5.315   2.310   0.217
 8444WAT     H225735   5.307   2.421   0.115
 8445WAT      O25736   2.948   5.165   3.652
 8445WAT     H125737   2.990   5.232   3.598
 8445WAT     H225738   2.874   5.210   3.692
 8446WAT      O25739   4.558   3.380   5.270
 8446WAT     H125740   4.602   3.355   5.189
 8446WAT     H225741   4.572   3.475   5.276
 8447WAT      O25742   0.649   5.921   5.927
 8447WAT     H125743   0.714   5.850   5.919
 8447WAT     H225744   0.682   5.989   5.868
 8448WAT      O25745   1.741   0.223   2.969
 8448WAT     H125746   1.660   0.227   3.019
 8448WAT     H225747   1.713   0.225   2.877
 8449WAT      O25748   3.497   4.620   1.837
 8449WAT     H125749   3.446   4.671   1.900
 8449WAT     H225750   3.445   4.540   1.824
 8450WAT      O25751   0.564   6.751   3.239
 8450WAT     H125752   0.579   6.668   3.193
 8450WAT     H225753   0.554   6.816   3.170
 8451WAT      O25754   1.297   5.660   5.505
 8451WAT     H125755   1.387   5.684   5.525
 8451WAT     H225756   1.291   5.663   5.410
 8452WAT      O25757   3.329   1.423   2.161
 8452WAT     H125758   3.421   1.404   2.183
 8452WAT     H225759   3.321   1.395   2.070
 8453WAT      O25760   4.779   0.111   4.735
 8453WAT     H125761   4.785   0.024   4.695
 8453WAT     H225762   4.850   0.113   4.799
 8454WAT      O25763   5.524   5.429   5.323
 8454WAT     H125764   5.510   5.454   5.414
 8454WAT     H225765   5.496   5.338   5.318
 8455WAT      O25766   7.011   4.750   6.056
 8455WAT     H125767   7.002   4.656   6.072
 8455WAT     H225768   7.041   4.756   5.966
 8456WAT      O25769   6.701   0.918   2.866
 8456WAT     H125770   6.706   0.863   2.788
 8456WAT     H225771   6.623   0.887   2.913
 8457WAT      O25772   1.855   6.149   3.757
 8457WAT     H125773   1.828   6.155   3.665
 8457WAT     H225774   1.868   6.056   3.772
 8458WAT      O25775   5.807   0.945   2.692
 8458WAT     H125776   5.799   0.986   2.605
 8458WAT     H225777   5.901   0.932   2.703
 8459WAT      O25778   2.419   2.031   0.024
 8459WAT     H125779   2.330   2.008   0.053
 8459WAT     H225780   2.407   2.063  -0.065
 8460WAT      O25781   5.090   3.457   4.920
 8460WAT     H125782   5.121   3.398   4.852
 8460WAT     H225783   5.010   3.495   4.885
 8461WAT      O25784   1.631   5.490   6.198
 8461WAT     H125785   1.561   5.478   6.262
 8461WAT     H225786   1.597   5.451   6.118
 8462WAT      O25787   0.594   4.410   5.059
 8462WAT     H125788   0.617   4.427   4.967
 8462WAT     H225789   0.500   4.390   5.057
 8463WAT      O25790   0.591   2.844   1.716
 8463WAT     H125791   0.574   2.751   1.730
 8463WAT     H225792   0.580   2.856   1.622
 8464WAT      O25793   3.968   2.127   0.523
 8464WAT     H125794   4.012   2.090   0.447
 8464WAT     H225795   3.976   2.221   0.513
 8465WAT      O25796   6.193   1.640   5.673
 8465WAT     H125797   6.277   1.685   5.683
 8465WAT     H225798   6.169   1.655   5.581
 8466WAT      O25799   0.756   3.816   3.095
 8466WAT     H125800   0.738   3.742   3.153
 8466WAT     H225801   0.786   3.777   3.014
 8467WAT      O25802   1.793   4.396   2.623
 8467WAT     H125803   1.876   4.409   2.669
 8467WAT     H225804   1.796   4.458   2.550
 8468WAT      O25805   4.203   5.198   3.223
 8468WAT     H125806   4.154   5.116   3.222
 8468WAT     H225807   4.251   5.198   3.141
 8469WAT      O25808   1.231   2.523   2.495
 8469WAT     H125809   1.245   2.467   2.419
 8469WAT     H225810   1.217   2.610   2.459
 8470WAT      O25811   6.198   5.819   3.233
 8470WAT     H125812   6.161   5.870   3.161
 8470WAT     H225813   6.293   5.823   3.219
 8471WAT      O25814   4.834   4.783   5.367
 8471WAT     H125815   4.910   4.836   5.392
 8471WAT     H225816   4.778   4.843   5.319
 8472WAT      O25817   5.471   2.404   2.956
 8472WAT     H125818   5.490   2.476   2.897
 8472WAT     H225819   5.420   2.342   2.903
 8473WAT      O25820   5.402   3.907   2.711
 8473WAT     H125821   5.456   3.859   2.773
 8473WAT     H225822   5.407   3.998   2.740
 8474WAT      O25823   5.967   1.670   4.927
 8474WAT     H125824   5.896   1.726   4.896
 8474WAT     H225825   6.033   1.674   4.859
 8475WAT      O25826   0.976   1.849   3.578
 8475WAT     H125827   0.899   1.906   3.578
 8475WAT     H225828   0.944   1.765   3.545
 8476WAT      O25829   0.446   5.294   0.887
 8476WAT     H125830   0.491   5.269   0.968
 8476WAT     H225831   0.462   5.388   0.879
 8477WAT      O25832   1.414   6.427   1.886
 8477WAT     H125833   1.375   6.486   1.822
 8477WAT     H225834   1.399   6.340   1.850
 8478WAT      O25835   5.377   4.953   2.053
 8478WAT     H125836   5.352   4.957   2.145
 8478WAT     H225837   5.404   5.043   2.032
 8479WAT      O25838   0.270   4.261   2.541
 8479WAT     H125839   0.301   4.315   2.469
 8479WAT     H225840   0.176   4.255   2.528
 8480WAT      O25841   6.659   3.471   2.025
 8480WAT     H125842   6.610   3.509   1.952
 8480WAT     H225843   6.609   3.495   2.103
 8481WAT      O25844   5.771   4.738   5.910
 8481WAT     H125845   5.818   4.656   5.924
 8481WAT     H225846   5.791   4.763   5.820
 8482WAT      O25847   6.374   5.292   3.738
 8482WAT     H125848   6.320   5.340   3.676
 8482WAT     H225849   6.448   5.351   3.756
 8483WAT      O25850   3.468   5.549   1.120
 8483WAT     H125851   3.443   5.479   1.061
 8483WAT     H225852   3.495   5.621   1.063
 8484WAT      O25853   4.782   5.209   0.312
 8484WAT     H125854   4.840   5.263   0.257
 8484WAT     H225855   4.723   5.166   0.250
 8485WAT      O25856   3.037   0.212   0.791
 8485WAT     H125857   3.104   0.272   0.826
 8485WAT     H225858   3.026   0.146   0.859
 8486WAT      O25859   2.017   0.551   5.374
 8486WAT     H125860   1.992   0.558   5.466
 8486WAT     H225861   1.942   0.509   5.332
 8487WAT      O25862   4.161   5.772   3.887
 8487WAT     H125863   4.171   5.689   3.933
 8487WAT     H225864   4.247   5.790   3.849
 8488WAT      O25865   0.123   3.034   5.259
 8488WAT     H125866   0.145   3.051   5.350
 8488WAT     H225867   0.197   2.984   5.225
 8489WAT      O25868   5.530   1.057   1.095
 8489WAT     H125869   5.440   1.035   1.070
 8489WAT     H225870   5.581   1.048   1.014
 8490WAT      O25871   0.313   5.549   4.652
 8490WAT     H125872   0.408   5.551   4.662
 8490WAT     H225873   0.280   5.527   4.740
 8491WAT      O25874   1.658   6.392   1.365
 8491WAT     H125875   1.640   6.328   1.296
 8491WAT     H225876   1.639   6.346   1.446
 8492WAT      O25877   5.274   2.899   2.206
 8492WAT     H125878   5.212   2.837   2.168
 8492WAT     H225879   5.359   2.856   2.198
 8493WAT      O25880   0.222   6.144   5.821
 8493WAT     H125881   0.175   6.228   5.825
 8493WAT     H225882   0.199   6.109   5.735
 8494WAT      O25883   2.914   0.241   2.326
 8494WAT     H125884   2.835   0.246   2.379
 8494WAT     H225885   2.940   0.332   2.314
 8495WAT      O25886   0.160   4.897   4.240
 8495WAT     H125887   0.175   4.973   4.296
 8495WAT     H225888   0.152   4.934   4.152
 8496WAT      O25889   3.940   3.015   0.293
 8496WAT     H125890   4.009   2.949   0.293
 8496WAT     H225891   3.861   2.967   0.317
 8497WAT      O25892   1.654   0.896   1.643
 8497WAT     H125893   1.576   0.844   1.662
 8497WAT     H225894   1.638   0.981   1.684
 8498WAT      O25895   0.567   0.844   1.908
 8498WAT     H125896   0.611   0.840   1.992
 8498WAT     H225897   0.473   0.850   1.929
 8499WAT      O25898   6.943   0.316   0.594
 8499WAT     H125899   6.874   0.269   0.641
 8499WAT     H225900   7.009   0.334   0.660
 8500WAT      O25901   0.666   5.025   1.756
 8500WAT     H125902   0.656   4.991   1.845
 8500WAT     H225903   0.755   5.000   1.731
 8501WAT      O25904   1.992   0.203   5.921
 8501WAT     H125905   1.914   0.256   5.936
 8501WAT     H225906   2.016   0.169   6.007
 8502WAT      O25907   3.027   3.851   1.865
 8502WAT     H125908   3.013   3.940   1.898
 8502WAT     H225909   2.939   3.812   1.861
 8503WAT      O25910   7.480   3.838   5.834
 8503WAT     H125911   7.570   3.870   5.832
 8503WAT     H225912   7.487   3.743   5.832
 8504WAT      O25913   2.703   1.433   4.072
 8504WAT     H125914   2.724   1.508   4.128
 8504WAT     H225915   2.702   1.469   3.983
 8505WAT      O25916   5.884   2.877   5.723
 8505WAT     H125917   5.968   2.923   5.713
 8505WAT     H225918   5.871   2.833   5.639
 8506WAT      O25919   4.734   1.301   2.565
 8506WAT     H125920   4.678   1.236   2.523
 8506WAT     H225921   4.780   1.343   2.492
 8507WAT      O25922   1.721   1.677   1.465
 8507WAT     H125923   1.655   1.742   1.491
 8507WAT     H225924   1.770   1.719   1.395
 8508WAT      O25925   3.470   4.633   3.378
 8508WAT     H125926   3.454   4.674   3.293
 8508WAT     H225927   3.505   4.703   3.433
 8509WAT      O25928   6.809   1.025   4.179
 8509WAT     H125929   6.741   1.026   4.246
 8509WAT     H225930   6.890   1.004   4.226
 8510WAT      O25931   5.372   1.061   3.500
 8510WAT     H125932   5.349   0.972   3.473
 8510WAT     H225933   5.341   1.117   3.430
 8511WAT      O25934   7.096   0.430   5.932
 8511WAT     H125935   7.019   0.414   5.876
 8511WAT     H225936   7.082   0.518   5.966
 8512WAT      O25937   4.673   5.694   4.349
 8512WAT     H125938   4.638   5.747   4.277
 8512WAT     H225939   4.710   5.758   4.410
 8513WAT      O25940   4.823   6.196   4.388
 8513WAT     H125941   4.918   6.204   4.397
 8513WAT     H225942   4.788   6.270   4.437
 8514WAT      O25943   7.126   5.033   3.882
 8514WAT     H125944   7.126   5.002   3.791
 8514WAT     H225945   7.217   5.059   3.898
 8515WAT      O25946   6.735   3.979   3.722
 8515WAT     H125947   6.796   4.044   3.686
 8515WAT     H225948   6.677   3.958   3.649
 8516WAT      O25949   1.104   5.703   1.742
 8516WAT     H125950   1.039   5.636   1.722
 8516WAT     H225951   1.188   5.661   1.722
 8517WAT      O25952   2.081   1.741   2.570
 8517WAT     H125953   2.071   1.824   2.523
 8517WAT     H225954   2.163   1.705   2.536
 8518WAT      O25955   5.771   1.655   1.664
 8518WAT     H125956   5.682   1.652   1.629
 8518WAT     H225957   5.825   1.611   1.597
 8519WAT      O25958   6.255   5.629   2.458
 8519WAT     H125959   6.323   5.663   2.516
 8519WAT     H225960   6.190   5.591   2.517
 8520WAT      O25961   0.379   4.010   2.579
 8520WAT     H125962   0.346   4.100   2.576
 8520WAT     H225963   0.378   3.982   2.487
 8521WAT      O25964   4.378   3.028   5.464
 8521WAT     H125965   4.397   3.068   5.379
 8521WAT     H225966   4.367   2.935   5.446
 8522WAT      O25967   4.403   3.639   4.215
 8522WAT     H125968   4.410   3.680   4.301
 8522WAT     H225969   4.309   3.637   4.197
 8523WAT      O25970   2.809   1.928   4.378
 8523WAT     H125971   2.817   1.836   4.400
 8523WAT     H225972   2.715   1.946   4.378
 8524WAT      O25973   6.883   0.922   5.480
 8524WAT     H125974   6.815   0.896   5.542
 8524WAT     H225975   6.900   1.014   5.499
 8525WAT      O25976   2.409   6.407   0.687
 8525WAT     H125977   2.385   6.394   0.596
 8525WAT     H225978   2.505   6.399   0.688
 8526WAT      O25979   1.457   4.429   4.264
 8526WAT     H125980   1.449   4.490   4.337
 8526WAT     H225981   1.394   4.360   4.284
 8527WAT      O25982   1.875   4.377   5.713
 8527WAT     H125983   1.852   4.345   5.800
 8527WAT     H225984   1.804   4.347   5.657
 8528WAT      O25985   3.432   4.150   5.359
 8528WAT     H125986   3.390   4.218   5.307
 8528WAT     H225987   3.392   4.068   5.328
 8529WAT      O25988   2.992   1.083   1.205
 8529WAT     H125989   2.951   1.000   1.180
 8529WAT     H225990   3.085   1.062   1.214
 8530WAT      O25991   4.777   5.913   4.467
 8530WAT     H125992   4.785   5.910   4.562
 8530WAT     H225993   4.742   6.000   4.448
 8531WAT      O25994   1.806   6.094   5.844
 8531WAT     H125995   1.774   6.180   5.817
 8531WAT     H225996   1.869   6.069   5.776
 8532WAT      O25997   2.402   3.546   2.181
 8532WAT     H125998   2.362   3.559   2.267
 8532WAT     H225999   2.331   3.561   2.119
 8533WAT      O26000   1.647   0.668   3.300
 8533WAT     H126001   1.736   0.633   3.304
 8533WAT     H226002   1.618   0.651   3.211
 8534WAT      O26003   3.387   5.991   6.110
 8534WAT     H126004   3.395   5.956   6.022
 8534WAT     H226005   3.294   6.013   6.119
 8535WAT      O26006   0.184   6.419   4.873
 8535WAT     H126007   0.093   6.429   4.845
 8535WAT     H226008   0.222   6.506   4.864
 8536WAT      O26009   3.276   1.559   2.872
 8536WAT     H126010   3.256   1.633   2.815
 8536WAT     H226011   3.194   1.541   2.918
 8537WAT      O26012   0.373   5.626   3.316
 8537WAT     H126013   0.443   5.563   3.299
 8537WAT     H226014   0.339   5.648   3.230
 8538WAT      O26015   3.107   3.825   0.582
 8538WAT     H126016   3.171   3.896   0.587
 8538WAT     H226017   3.049   3.851   0.510
 8539WAT      O26018   6.688   0.489   0.692
 8539WAT     H126019   6.699   0.583   0.707
 8539WAT     H226020   6.764   0.464   0.639
 8540WAT      O26021   1.174   4.281   1.245
 8540WAT     H126022   1.100   4.231   1.210
 8540WAT     H226023   1.196   4.237   1.327
 8541WAT      O26024   3.723   6.035   5.360
 8541WAT     H126025   3.780   6.056   5.287
 8541WAT     H226026   3.646   5.996   5.319
 8542WAT      O26027   0.129   6.281   1.277
 8542WAT     H126028   0.145   6.374   1.294
 8542WAT     H226029   0.143   6.239   1.361
 8543WAT      O26030   5.816   2.976   5.108
 8543WAT     H126031   5.810   3.062   5.066
 8543WAT     H226032   5.873   2.990   5.183
 8544WAT      O26033   2.207   2.274   2.456
 8544WAT     H126034   2.148   2.334   2.501
 8544WAT     H226035   2.182   2.279   2.364
 8545WAT      O26036   6.261   2.014   5.267
 8545WAT     H126037   6.259   2.102   5.229
 8545WAT     H226038   6.273   1.956   5.192
 8546WAT      O26039   3.387   0.352   2.652
 8546WAT     H126040   3.324   0.413   2.615
 8546WAT     H226041   3.449   0.334   2.581
 8547WAT      O26042   6.983   0.027   3.307
 8547WAT     H126043   7.067   0.009   3.349
 8547WAT     H226044   6.975  -0.040   3.239
 8548WAT      O26045   0.989   6.926   3.356
 8548WAT     H126046   0.934   6.848   3.351
 8548WAT     H226047   0.928   6.998   3.366
 8549WAT      O26048   2.525   6.151   4.830
 8549WAT     H126049   2.449   6.188   4.784
 8549WAT     H226050   2.530   6.203   4.911
 8550WAT      O26051   4.499   5.737   3.275
 8550WAT     H126052   4.533   5.823   3.249
 8550WAT     H226053   4.539   5.676   3.213
 8551WAT      O26054   6.024   1.409   4.571
 8551WAT     H126055   6.064   1.348   4.509
 8551WAT     H226056   5.981   1.475   4.516
 8552WAT      O26057   7.530   5.046   5.331
 8552WAT     H126058   7.608   5.098   5.311
 8552WAT     H226059   7.548   4.959   5.297
 8553WAT      O26060   0.125   4.106   6.010
 8553WAT     H126061   0.121   4.167   5.937
 8553WAT     H226062   0.074   4.148   6.079
 8554WAT      O26063   3.098   4.608   1.923
 8554WAT     H126064   3.099   4.556   1.843
 8554WAT     H226065   3.008   4.643   1.927
 8555WAT      O26066   2.389   1.057   1.217
 8555WAT     H126067   2.344   1.026   1.138
 8555WAT     H226068   2.454   1.120   1.184
 8556WAT      O26069   5.449   0.761   2.047
 8556WAT     H126070   5.518   0.806   2.000
 8556WAT     H226071   5.490   0.680   2.078
 8557WAT      O26072   2.952   2.162   3.221
 8557WAT     H126073   3.012   2.100   3.262
 8557WAT     H226074   2.865   2.129   3.243
 8558WAT      O26075   4.488   2.624   4.031
 8558WAT     H126076   4.454   2.614   4.120
 8558WAT     H226077   4.523   2.713   4.027
 8559WAT      O26078   3.031   2.571   0.812
 8559WAT     H126079   2.966   2.526   0.758
 8559WAT     H226080   3.041   2.657   0.770
 8560WAT      O26081   6.468   0.591   0.998
 8560WAT     H126082   6.427   0.595   0.912
 8560WAT     H226083   6.561   0.605   0.981
 8561WAT      O26084   5.819   1.317   4.247
 8561WAT     H126085   5.739   1.363   4.271
 8561WAT     H226086   5.838   1.347   4.158
 8562WAT      O26087   0.949   0.638   2.566
 8562WAT     H126088   0.992   0.570   2.515
 8562WAT     H226089   0.976   0.720   2.525
 8563WAT      O26090   3.214   7.054   1.685
 8563WAT     H126091   3.169   6.980   1.727
 8563WAT     H226092   3.166   7.131   1.716
 8564WAT      O26093   2.350   6.660   2.998
 8564WAT     H126094   2.313   6.580   2.961
 8564WAT     H226095   2.367   6.716   2.922
 8565WAT      O26096   4.281   4.375   2.608
 8565WAT     H126097   4.256   4.283   2.600
 8565WAT     H226098   4.218   4.422   2.554
 8566WAT      O26099   5.288   3.888   1.416
 8566WAT     H126100   5.280   3.870   1.322
 8566WAT     H226101   5.199   3.910   1.443
 8567WAT      O26102   7.312   0.911   3.748
 8567WAT     H126103   7.236   0.919   3.690
 8567WAT     H226104   7.386   0.897   3.688
 8568WAT      O26105   3.579   6.346   1.355
 8568WAT     H126106   3.497   6.391   1.375
 8568WAT     H226107   3.551   6.264   1.314
 8569WAT      O26108   3.532   4.638   2.184
 8569WAT     H126109   3.458   4.696   2.203
 8569WAT     H226110   3.565   4.612   2.270
 8570WAT      O26111   2.351   5.841   5.683
 8570WAT     H126112   2.444   5.821   5.667
 8570WAT     H226113   2.304   5.773   5.635
 8571WAT      O26114   1.511   1.382   2.919
 8571WAT     H126115   1.448   1.394   2.848
 8571WAT     H226116   1.585   1.438   2.895
 8572WAT      O26117   2.926   3.820   4.212
 8572WAT     H126118   2.984   3.790   4.142
 8572WAT     H226119   2.839   3.824   4.171
 8573WAT      O26120   2.562   5.951   2.650
 8573WAT     H126121   2.616   5.874   2.669
 8573WAT     H226122   2.615   6.001   2.588
 8574WAT      O26123   0.542   1.592   1.133
 8574WAT     H126124   0.598   1.546   1.195
 8574WAT     H226125   0.599   1.657   1.092
 8575WAT      O26126   5.409   2.368   3.744
 8575WAT     H126127   5.330   2.396   3.699
 8575WAT     H226128   5.475   2.360   3.675
 8576WAT      O26129   5.867   0.732   0.709
 8576WAT     H126130   5.915   0.667   0.657
 8576WAT     H226131   5.919   0.812   0.702
 8577WAT      O26132   2.398   2.195   4.814
 8577WAT     H126133   2.480   2.230   4.849
 8577WAT     H226134   2.412   2.193   4.720
 8578WAT      O26135   2.454   0.131   3.102
 8578WAT     H126136   2.437   0.041   3.076
 8578WAT     H226137   2.550   0.139   3.101
 8579WAT      O26138   0.027   6.098   3.717
 8579WAT     H126139  -0.038   6.146   3.666
 8579WAT     H226140   0.102   6.157   3.721
 8580WAT      O26141   3.735   1.105   4.454
 8580WAT     H126142   3.664   1.083   4.394
 8580WAT     H226143   3.810   1.055   4.423
 8581WAT      O26144   4.807   0.805   4.040
 8581WAT     H126145   4.778   0.894   4.020
 8581WAT     H226146   4.876   0.787   3.977
 8582WAT      O26147   5.744   5.208   2.655
 8582WAT     H126148   5.725   5.278   2.592
 8582WAT     H226149   5.740   5.251   2.740
 8583WAT      O26150   1.728   4.540   0.564
 8583WAT     H126151   1.634   4.544   0.584
 8583WAT     H226152   1.735   4.474   0.496
 8584WAT      O26153   5.828   4.735   3.361
 8584WAT     H126154   5.839   4.804   3.295
 8584WAT     H226155   5.916   4.720   3.394
 8585WAT      O26156   2.586   0.842   1.091
 8585WAT     H126157   2.574   0.789   1.013
 8585WAT     H226158   2.516   0.815   1.150
 8586WAT      O26159   4.235   4.701   2.493
 8586WAT     H126160   4.181   4.779   2.476
 8586WAT     H226161   4.177   4.627   2.476
 8587WAT      O26162   6.740   6.291   5.410
 8587WAT     H126163   6.764   6.315   5.320
 8587WAT     H226164   6.690   6.210   5.401
 8588WAT      O26165   1.906   5.588   0.212
 8588WAT     H126166   1.890   5.683   0.213
 8588WAT     H226167   1.923   5.568   0.120
 8589WAT      O26168   0.336   6.364   1.071
 8589WAT     H126169   0.284   6.289   1.098
 8589WAT     H226170   0.405   6.370   1.137
 8590WAT      O26171   0.884   4.473   2.052
 8590WAT     H126172   0.941   4.459   2.128
 8590WAT     H226173   0.937   4.525   1.992
 8591WAT      O26174   0.806   5.913   3.933
 8591WAT     H126175   0.853   5.872   4.005
 8591WAT     H226176   0.758   5.841   3.892
 8592WAT      O26177   5.382   4.267   4.603
 8592WAT     H126178   5.433   4.311   4.534
 8592WAT     H226179   5.303   4.321   4.612
 8593WAT      O26180   0.335   4.343   5.325
 8593WAT     H126181   0.349   4.334   5.231
 8593WAT     H226182   0.398   4.283   5.365
 8594WAT      O26183   4.552   5.310   0.048
 8594WAT     H126184   4.494   5.300  -0.027
 8594WAT     H226185   4.532   5.234   0.104
 8595WAT      O26186   3.881   5.454   5.695
 8595WAT     H126187   3.809   5.509   5.727
 8595WAT     H226188   3.843   5.407   5.621
 8596WAT      O26189   3.027   5.665   0.006
 8596WAT     H126190   2.983   5.609   0.070
 8596WAT     H226191   3.068   5.733   0.058
 8597WAT      O26192   6.468   7.099   0.078
 8597WAT     H126193   6.388   7.049   0.063
 8597WAT     H226194   6.517   7.091  -0.004
 8598WAT      O26195   4.689   1.587   1.946
 8598WAT     H126196   4.638   1.558   1.871
 8598WAT     H226197   4.727   1.671   1.919
 8599WAT      O26198   5.933   0.121   4.334
 8599WAT     H126199   6.000   0.106   4.267
 8599WAT     H226200   5.869   0.178   4.292
 8600WAT      O26201   3.313   7.087   4.394
 8600WAT     H126202   3.375   7.017   4.415
 8600WAT     H226203   3.231   7.042   4.375
 8601WAT      O26204   7.150   4.872   0.642
 8601WAT     H126205   7.070   4.891   0.592
 8601WAT     H226206   7.127   4.796   0.696
 8602WAT      O26207   3.183   6.782   4.123
 8602WAT     H126208   3.133   6.825   4.053
 8602WAT     H226209   3.252   6.735   4.076
 8603WAT      O26210   3.143   2.055   3.960
 8603WAT     H126211   3.083   2.126   3.936
 8603WAT     H226212   3.153   2.063   4.055
 8604WAT      O26213   7.176   3.436   3.762
 8604WAT     H126214   7.269   3.433   3.784
 8604WAT     H226215   7.161   3.357   3.710
 8605WAT      O26216   7.245   5.978   3.716
 8605WAT     H126217   7.278   6.001   3.803
 8605WAT     H226218   7.191   5.900   3.730
 8606WAT      O26219   1.467   4.599   3.905
 8606WAT     H126220   1.560   4.592   3.881
 8606WAT     H226221   1.436   4.508   3.906
 8607WAT      O26222   0.929   1.858   4.190
 8607WAT     H126223   0.891   1.855   4.102
 8607WAT     H226224   0.987   1.782   4.193
 8608WAT      O26225   3.296   1.608   3.974
 8608WAT     H126226   3.301   1.521   3.935
 8608WAT     H226227   3.309   1.668   3.901
 8609WAT      O26228   6.103   2.318   3.445
 8609WAT     H126229   6.165   2.363   3.388
 8609WAT     H226230   6.101   2.370   3.526
 8610WAT      O26231   2.820   5.512   5.723
 8610WAT     H126232   2.830   5.607   5.721
 8610WAT     H226233   2.767   5.491   5.646
 8611WAT      O26234   1.928   2.550   3.589
 8611WAT     H126235   1.963   2.481   3.532
 8611WAT     H226236   1.883   2.503   3.659
 8612WAT      O26237   4.891   3.524   5.373
 8612WAT     H126238   4.878   3.433   5.401
 8612WAT     H226239   4.867   3.524   5.281
 8613WAT      O26240   2.859   1.528   3.512
 8613WAT     H126241   2.809   1.597   3.554
 8613WAT     H226242   2.804   1.451   3.518
 8614WAT      O26243   6.816   6.397   3.300
 8614WAT     H126244   6.794   6.318   3.250
 8614WAT     H226245   6.762   6.465   3.260
 8615WAT      O26246   2.084   3.018   5.562
 8615WAT     H126247   2.016   2.958   5.531
 8615WAT     H226248   2.163   2.991   5.517
 8616WAT      O26249   7.210   2.714   3.091
 8616WAT     H126250   7.277   2.739   3.154
 8616WAT     H226251   7.258   2.699   3.009
 8617WAT      O26252   1.515   5.783   0.562
 8617WAT     H126253   1.602   5.747   0.541
 8617WAT     H226254   1.468   5.780   0.479
 8618WAT      O26255   4.892   5.252   4.166
 8618WAT     H126256   4.953   5.289   4.103
 8618WAT     H226257   4.906   5.158   4.161
 8619WAT      O26258   6.131   1.802   3.309
 8619WAT     H126259   6.084   1.719   3.321
 8619WAT     H226260   6.083   1.865   3.362
 8620WAT      O26261   7.362   0.273   1.223
 8620WAT     H126262   7.380   0.286   1.316
 8620WAT     H226263   7.448   0.271   1.181
 8621WAT      O26264   0.683   4.393   3.371
 8621WAT     H126265   0.674   4.372   3.278
 8621WAT     H226266   0.711   4.485   3.373
 8622WAT      O26267   3.198   3.491   5.371
 8622WAT     H126268   3.128   3.437   5.406
 8622WAT     H226269   3.201   3.471   5.278
 8623WAT      O26270   5.361   2.434   2.482
 8623WAT     H126271   5.435   2.402   2.431
 8623WAT     H226272   5.305   2.479   2.418
 8624WAT      O26273   0.370   3.501   1.413
 8624WAT     H126274   0.366   3.569   1.346
 8624WAT     H226275   0.295   3.518   1.470
 8625WAT      O26276   5.556   3.872   1.512
 8625WAT     H126277   5.460   3.871   1.506
 8625WAT     H226278   5.584   3.796   1.461
 8626WAT      O26279   2.651   6.414   1.562
 8626WAT     H126280   2.669   6.401   1.468
 8626WAT     H226281   2.566   6.374   1.576
 8627WAT      O26282   7.497   1.741   5.041
 8627WAT     H126283   7.494   1.711   4.951
 8627WAT     H226284   7.514   1.835   5.034
 8628WAT      O26285   6.650   0.377   0.117
 8628WAT     H126286   6.723   0.428   0.153
 8628WAT     H226287   6.674   0.362   0.026
 8629WAT      O26288   5.443   4.085   4.310
 8629WAT     H126289   5.388   4.163   4.313
 8629WAT     H226290   5.460   4.071   4.217
 8630WAT      O26291   4.117   2.712   3.336
 8630WAT     H126292   4.039   2.761   3.309
 8630WAT     H226293   4.166   2.774   3.390
 8631WAT      O26294   3.469   5.589   2.349
 8631WAT     H126295   3.414   5.550   2.282
 8631WAT     H226296   3.556   5.593   2.310
 8632WAT      O26297   3.050   3.459   2.069
 8632WAT     H126298   3.005   3.528   2.118
 8632WAT     H226299   3.112   3.422   2.132
 8633WAT      O26300   4.008   3.878   4.155
 8633WAT     H126301   4.026   3.965   4.120
 8633WAT     H226302   4.003   3.821   4.079
 8634WAT      O26303   6.033   6.253   2.872
 8634WAT     H126304   6.127   6.266   2.887
 8634WAT     H226305   6.006   6.330   2.823
 8635WAT      O26306   0.242   3.931   0.793
 8635WAT     H126307   0.250   3.972   0.878
 8635WAT     H226308   0.174   3.865   0.804
 8636WAT      O26309   3.376   6.328   2.771
 8636WAT     H126310   3.454   6.329   2.715
 8636WAT     H226311   3.303   6.314   2.711
 8637WAT      O26312   6.929   6.179   1.603
 8637WAT     H126313   6.881   6.242   1.549
 8637WAT     H226314   6.934   6.100   1.549
 8638WAT      O26315   3.792   2.333   4.052
 8638WAT     H126316   3.722   2.269   4.063
 8638WAT     H226317   3.833   2.309   3.968
 8639WAT      O26318   0.782   1.419   3.571
 8639WAT     H126319   0.719   1.402   3.500
 8639WAT     H226320   0.836   1.491   3.538
 8640WAT      O26321   0.570   2.818   2.883
 8640WAT     H126322   0.661   2.835   2.905
 8640WAT     H226323   0.564   2.833   2.788
 8641WAT      O26324   0.077   6.405   4.600
 8641WAT     H126325  -0.016   6.426   4.609
 8641WAT     H226326   0.084   6.359   4.517
 8642WAT      O26327   3.095   1.450   0.546
 8642WAT     H126328   3.167   1.423   0.603
 8642WAT     H226329   3.090   1.381   0.479
 8643WAT      O26330   1.161   2.758   5.065
 8643WAT     H126331   1.116   2.682   5.102
 8643WAT     H226332   1.189   2.729   4.978
 8644WAT      O26333   0.100   6.640   4.018
 8644WAT     H126334   0.076   6.718   3.967
 8644WAT     H226335   0.182   6.664   4.061
 8645WAT      O26336   1.004   1.453   4.613
 8645WAT     H126337   1.010   1.535   4.564
 8645WAT     H226338   0.973   1.480   4.700
 8646WAT      O26339   3.969   1.397   5.480
 8646WAT     H126340   3.890   1.394   5.533
 8646WAT     H226341   3.947   1.345   5.402
 8647WAT      O26342   0.123   2.954   4.030
 8647WAT     H126343   0.047   3.009   4.016
 8647WAT     H226344   0.110   2.879   3.972
 8648WAT      O26345   4.781   3.042   5.826
 8648WAT     H126346   4.687   3.036   5.840
 8648WAT     H226347   4.790   3.066   5.734
 8649WAT      O26348   0.484   2.078   5.140
 8649WAT     H126349   0.493   2.033   5.056
 8649WAT     H226350   0.461   2.168   5.116
 8650WAT      O26351   6.216   0.325   0.291
 8650WAT     H126352   6.295   0.289   0.250
 8650WAT     H226353   6.145   0.298   0.234
 8651WAT      O26354   0.433   4.252   4.755
 8651WAT     H126355   0.448   4.200   4.676
 8651WAT     H226356   0.497   4.322   4.751
 8652WAT      O26357   2.321   6.003   0.061
 8652WAT     H126358   2.283   5.915   0.060
 8652WAT     H226359   2.365   6.012  -0.024
 8653WAT      O26360   4.398   3.222   3.980
 8653WAT     H126361   4.379   3.310   4.013
 8653WAT     H226362   4.411   3.234   3.886
 8654WAT      O26363   1.371   1.016   1.519
 8654WAT     H126364   1.357   1.053   1.432
 8654WAT     H226365   1.285   0.986   1.548
 8655WAT      O26366   0.973   1.525   2.142
 8655WAT     H126367   1.039   1.469   2.100
 8655WAT     H226368   0.900   1.466   2.161
 8656WAT      O26369   2.890   1.048   1.739
 8656WAT     H126370   2.865   0.962   1.704
 8656WAT     H226371   2.892   1.105   1.662
 8657WAT      O26372   6.166   0.473   0.950
 8657WAT     H126373   6.132   0.502   1.035
 8657WAT     H226374   6.156   0.550   0.893
 8658WAT      O26375   5.040   2.573   3.344
 8658WAT     H126376   5.033   2.577   3.249
 8658WAT     H226377   4.950   2.557   3.374
 8659WAT      O26378   1.921   2.611   2.921
 8659WAT     H126379   1.878   2.585   3.003
 8659WAT     H226380   1.999   2.660   2.950
 8660WAT      O26381   5.303   1.737   5.664
 8660WAT     H126382   5.262   1.679   5.600
 8660WAT     H226383   5.281   1.825   5.634
 8661WAT      O26384   3.988   4.033   4.889
 8661WAT     H126385   4.006   4.117   4.930
 8661WAT     H226386   3.982   4.052   4.796
 8662WAT      O26387   2.025   1.292   3.525
 8662WAT     H126388   2.090   1.262   3.461
 8662WAT     H226389   1.961   1.222   3.529
 8663WAT      O26390   6.592   7.166   4.221
 8663WAT     H126391   6.550   7.225   4.284
 8663WAT     H226392   6.611   7.086   4.270
 8664WAT      O26393   5.580   3.916   1.793
 8664WAT     H126394   5.555   3.915   1.700
 8664WAT     H226395   5.513   3.862   1.836
 8665WAT      O26396   1.338   0.209   5.565
 8665WAT     H126397   1.360   0.135   5.508
 8665WAT     H226398   1.250   0.234   5.538
 8666WAT      O26399   6.712   5.164   1.117
 8666WAT     H126400   6.690   5.172   1.024
 8666WAT     H226401   6.790   5.218   1.127
 8667WAT      O26402   6.357   0.451   2.734
 8667WAT     H126403   6.364   0.406   2.650
 8667WAT     H226404   6.431   0.511   2.735
 8668WAT      O26405   6.909   5.042   0.688
 8668WAT     H126406   6.825   5.004   0.714
 8668WAT     H226407   6.889   5.092   0.609
 8669WAT      O26408   0.574   0.840   2.715
 8669WAT     H126409   0.657   0.888   2.709
 8669WAT     H226410   0.594   0.752   2.685
 8670WAT      O26411   2.496   1.372   3.588
 8670WAT     H126412   2.411   1.415   3.574
 8670WAT     H226413   2.503   1.310   3.515
 8671WAT      O26414   5.667   5.722   1.750
 8671WAT     H126415   5.724   5.779   1.699
 8671WAT     H226416   5.591   5.707   1.694
 8672WAT      O26417   0.095   0.551   2.042
 8672WAT     H126418   0.004   0.580   2.047
 8672WAT     H226419   0.089   0.462   2.008
 8673WAT      O26420   2.681   1.906   0.994
 8673WAT     H126421   2.697   1.885   0.903
 8673WAT     H226422   2.590   1.880   1.010
 8674WAT      O26423   6.390   3.257   6.084
 8674WAT     H126424   6.395   3.317   6.158
 8674WAT     H226425   6.434   3.177   6.114
 8675WAT      O26426   7.032   6.616   4.764
 8675WAT     H126427   7.073   6.532   4.744
 8675WAT     H226428   7.092   6.682   4.728
 8676WAT      O26429   5.218   6.432   1.448
 8676WAT     H126430   5.161   6.357   1.429
 8676WAT     H226431   5.233   6.473   1.362
 8677WAT      O26432   4.679   4.476   3.688
 8677WAT     H126433   4.759   4.519   3.719
 8677WAT     H226434   4.701   4.449   3.599
 8678WAT      O26435   3.442   6.614   1.274
 8678WAT     H126436   3.445   6.560   1.195
 8678WAT     H226437   3.532   6.644   1.285
 8679WAT      O26438   7.315   4.002   5.273
 8679WAT     H126439   7.319   3.915   5.232
 8679WAT     H226440   7.225   4.032   5.256
 8680WAT      O26441   6.703   3.939   5.044
 8680WAT     H126442   6.765   3.956   4.972
 8680WAT     H226443   6.657   4.022   5.056
 8681WAT      O26444   4.246   4.699   1.751
 8681WAT     H126445   4.205   4.782   1.776
 8681WAT     H226446   4.238   4.696   1.656
 8682WAT      O26447   4.021   0.285   6.064
 8682WAT     H126448   3.962   0.235   6.121
 8682WAT     H226449   4.098   0.302   6.119
 8683WAT      O26450   3.168   5.052   4.159
 8683WAT     H126451   3.152   4.958   4.166
 8683WAT     H226452   3.108   5.081   4.091
 8684WAT      O26453   2.535   0.229   1.233
 8684WAT     H126454   2.619   0.194   1.264
 8684WAT     H226455   2.483   0.151   1.214
 8685WAT      O26456   2.050   2.328   3.448
 8685WAT     H126457   2.143   2.338   3.432
 8685WAT     H226458   2.013   2.299   3.365
 8686WAT      O26459   7.291   4.991   5.139
 8686WAT     H126460   7.331   4.950   5.215
 8686WAT     H226461   7.222   4.930   5.112
 8687WAT      O26462   3.666   6.704   3.234
 8687WAT     H126463   3.618   6.629   3.199
 8687WAT     H226464   3.743   6.666   3.276
 8688WAT      O26465   5.209   4.011   2.034
 8688WAT     H126466   5.255   4.087   2.069
 8688WAT     H226467   5.142   4.048   1.977
 8689WAT      O26468   1.794   4.730   2.768
 8689WAT     H126469   1.888   4.746   2.761
 8689WAT     H226470   1.765   4.712   2.679
 8690WAT      O26471   5.194   6.889   5.768
 8690WAT     H126472   5.232   6.843   5.843
 8690WAT     H226473   5.129   6.828   5.732
 8691WAT      O26474   4.653   6.592   1.043
 8691WAT     H126475   4.705   6.555   1.115
 8691WAT     H226476   4.576   6.629   1.085
 8692WAT      O26477   3.418   0.097   0.463
 8692WAT     H126478   3.458   0.177   0.427
 8692WAT     H226479   3.447   0.028   0.403
 8693WAT      O26480   6.449   4.821   3.314
 8693WAT     H126481   6.399   4.766   3.253
 8693WAT     H226482   6.521   4.855   3.261
 8694WAT      O26483   0.561   5.858   4.722
 8694WAT     H126484   0.470   5.845   4.694
 8694WAT     H226485   0.601   5.771   4.716
 8695WAT      O26486   1.956   5.116   3.480
 8695WAT     H126487   2.019   5.127   3.552
 8695WAT     H226488   1.902   5.042   3.507
 8696WAT      O26489   4.184   4.696   0.330
 8696WAT     H126490   4.098   4.722   0.297
 8696WAT     H226491   4.168   4.616   0.380
 8697WAT      O26492   3.324   2.366   5.352
 8697WAT     H126493   3.413   2.344   5.325
 8697WAT     H226494   3.287   2.284   5.383
 8698WAT      O26495   2.638   0.743   0.306
 8698WAT     H126496   2.652   0.649   0.310
 8698WAT     H226497   2.717   0.778   0.264
 8699WAT      O26498   0.444   4.639   6.006
 8699WAT     H126499   0.414   4.727   5.985
 8699WAT     H226500   0.373   4.582   5.975
 8700WAT      O26501   1.023   6.086   4.815
 8700WAT     H126502   0.994   6.056   4.728
 8700WAT     H226503   1.105   6.133   4.797
 8701WAT      O26504   0.593   2.406   5.453
 8701WAT     H126505   0.514   2.399   5.506
 8701WAT     H226506   0.561   2.417   5.364
 8702WAT      O26507   7.142   4.607   3.646
 8702WAT     H126508   7.072   4.581   3.707
 8702WAT     H226509   7.215   4.631   3.703
 8703WAT      O26510   5.425   2.972   3.914
 8703WAT     H126511   5.514   3.007   3.921
 8703WAT     H226512   5.375   3.042   3.872
 8704WAT      O26513   6.041   2.110   1.960
 8704WAT     H126514   5.991   2.029   1.951
 8704WAT     H226515   6.011   2.149   2.041
 8705WAT      O26516   2.703   4.179   4.016
 8705WAT     H126517   2.732   4.159   3.927
 8705WAT     H226518   2.760   4.250   4.044
 8706WAT      O26519   6.697   1.684   5.032
 8706WAT     H126520   6.674   1.763   4.983
 8706WAT     H226521   6.745   1.630   4.970
 8707WAT      O26522   0.130   0.787   6.136
 8707WAT     H126523   0.092   0.723   6.196
 8707WAT     H226524   0.109   0.754   6.049
 8708WAT      O26525   1.174   0.742   1.581
 8708WAT     H126526   1.109   0.676   1.605
 8708WAT     H226527   1.142   0.823   1.621
 8709WAT      O26528   6.608   1.647   4.177
 8709WAT     H126529   6.580   1.600   4.099
 8709WAT     H226530   6.595   1.739   4.156
 8710WAT      O26531   5.969   1.356   3.195
 8710WAT     H126532   5.973   1.438   3.147
 8710WAT     H226533   5.931   1.294   3.133
 8711WAT      O26534   0.233   1.466   0.331
 8711WAT     H126535   0.173   1.518   0.383
 8711WAT     H226536   0.208   1.375   0.349
 8712WAT      O26537   3.782   0.503   1.290
 8712WAT     H126538   3.875   0.515   1.270
 8712WAT     H226539   3.737   0.528   1.209
 8713WAT      O26540   7.243   4.202   5.029
 8713WAT     H126541   7.289   4.286   5.036
 8713WAT     H226542   7.294   4.143   5.084
 8714WAT      O26543   4.241   6.875   3.486
 8714WAT     H126544   4.278   6.951   3.531
 8714WAT     H226545   4.227   6.905   3.396
 8715WAT      O26546   4.066   1.952   1.474
 8715WAT     H126547   4.000   1.928   1.408
 8715WAT     H226548   4.150   1.938   1.430
 8716WAT      O26549   7.235   1.215   0.226
 8716WAT     H126550   7.217   1.210   0.132
 8716WAT     H226551   7.327   1.239   0.232
 8717WAT      O26552   1.167   4.433   0.366
 8717WAT     H126553   1.198   4.417   0.277
 8717WAT     H226554   1.157   4.528   0.370
 8718WAT      O26555   4.552   2.896   3.997
 8718WAT     H126556   4.500   2.935   3.927
 8718WAT     H226557   4.643   2.907   3.968
 8719WAT      O26558   6.278   6.693   2.036
 8719WAT     H126559   6.243   6.604   2.025
 8719WAT     H226560   6.241   6.742   1.962
 8720WAT      O26561   0.676   0.611   2.643
 8720WAT     H126562   0.643   0.544   2.582
 8720WAT     H226563   0.770   0.614   2.626
 8721WAT      O26564   3.727   3.703   2.447
 8721WAT     H126565   3.750   3.611   2.432
 8721WAT     H226566   3.636   3.710   2.417
 8722WAT      O26567   4.940   2.721   1.242
 8722WAT     H126568   4.859   2.687   1.279
 8722WAT     H226569   4.917   2.743   1.151
 8723WAT      O26570   3.926   0.068   3.815
 8723WAT     H126571   3.867   0.014   3.763
 8723WAT     H226572   3.977   0.117   3.751
 8724WAT      O26573   4.283   2.031   2.118
 8724WAT     H126574   4.321   2.109   2.158
 8724WAT     H226575   4.260   2.058   2.029
 8725WAT      O26576   3.796   3.425   2.972
 8725WAT     H126577   3.802   3.519   2.958
 8725WAT     H226578   3.886   3.397   2.988
 8726WAT      O26579   0.821   3.631   0.696
 8726WAT     H126580   0.902   3.613   0.649
 8726WAT     H226581   0.805   3.551   0.747
 8727WAT      O26582   4.182   2.553   3.120
 8727WAT     H126583   4.176   2.622   3.054
 8727WAT     H226584   4.161   2.596   3.203
 8728WAT      O26585   0.874   5.310   0.459
 8728WAT     H126586   0.802   5.275   0.511
 8728WAT     H226587   0.832   5.366   0.394
 8729WAT      O26588   6.976   1.996   1.963
 8729WAT     H126589   7.035   1.937   1.917
 8729WAT     H226590   7.002   1.988   2.055
 8730WAT      O26591   0.644   3.640   2.804
 8730WAT     H126592   0.739   3.637   2.815
 8730WAT     H226593   0.627   3.723   2.760
 8731WAT      O26594   2.115   2.277   2.827
 8731WAT     H126595   2.124   2.362   2.784
 8731WAT     H226596   2.132   2.295   2.919
 8732WAT      O26597   6.067   0.823   2.681
 8732WAT     H126598   6.067   0.730   2.660
 8732WAT     H226599   6.131   0.861   2.621
 8733WAT      O26600   6.344   1.900   4.023
 8733WAT     H126601   6.344   1.937   3.934
 8733WAT     H226602   6.345   1.806   4.010
 8734WAT      O26603   3.483   5.090   0.951
 8734WAT     H126604   3.446   5.073   0.865
 8734WAT     H226605   3.407   5.091   1.010
 8735WAT      O26606   1.864   6.984   1.648
 8735WAT     H126607   1.931   7.021   1.590
 8735WAT     H226608   1.913   6.928   1.707
 8736WAT      O26609   7.555   4.786   2.039
 8736WAT     H126610   7.600   4.712   1.999
 8736WAT     H226611   7.471   4.750   2.069
 8737WAT      O26612   0.712   1.519   5.162
 8737WAT     H126613   0.728   1.537   5.255
 8737WAT     H226614   0.625   1.557   5.146
 8738WAT      O26615   2.116   2.656   1.551
 8738WAT     H126616   2.082   2.568   1.531
 8738WAT     H226617   2.091   2.709   1.475
 8739WAT      O26618   5.531   2.213   1.572
 8739WAT     H126619   5.568   2.124   1.573
 8739WAT     H226620   5.598   2.268   1.611
 8740WAT      O26621   0.632   4.892   6.203
 8740WAT     H126622   0.655   4.984   6.194
 8740WAT     H226623   0.634   4.858   6.114
 8741WAT      O26624   0.463   3.080   0.526
 8741WAT     H126625   0.461   2.989   0.496
 8741WAT     H226626   0.376   3.114   0.504
 8742WAT      O26627   2.589   4.866   1.686
 8742WAT     H126628   2.595   4.808   1.761
 8742WAT     H226629   2.675   4.909   1.681
 8743WAT      O26630   3.128   5.480   0.910
 8743WAT     H126631   3.145   5.436   0.994
 8743WAT     H226632   3.100   5.568   0.935
 8744WAT      O26633   6.316   3.488   3.696
 8744WAT     H126634   6.365   3.450   3.623
 8744WAT     H226635   6.374   3.479   3.771
 8745WAT      O26636   2.140   0.824   1.175
 8745WAT     H126637   2.182   0.859   1.097
 8745WAT     H226638   2.072   0.888   1.196
 8746WAT      O26639   5.405   3.819   1.977
 8746WAT     H126640   5.350   3.893   2.003
 8746WAT     H226641   5.380   3.749   2.037
 8747WAT      O26642   6.575   2.175   3.720
 8747WAT     H126643   6.551   2.083   3.709
 8747WAT     H226644   6.555   2.215   3.636
 8748WAT      O26645   3.553   5.102   5.273
 8748WAT     H126646   3.644   5.102   5.245
 8748WAT     H226647   3.542   5.021   5.322
 8749WAT      O26648   6.329   0.317   0.787
 8749WAT     H126649   6.270   0.313   0.712
 8749WAT     H226650   6.322   0.407   0.819
 8750WAT      O26651   4.915   1.563   5.942
 8750WAT     H126652   4.940   1.643   5.897
 8750WAT     H226653   4.899   1.500   5.872
 8751WAT      O26654   1.549   1.512   6.002
 8751WAT     H126655   1.585   1.472   6.081
 8751WAT     H226656   1.626   1.541   5.952
 8752WAT      O26657   1.158   4.681   5.668
 8752WAT     H126658   1.221   4.728   5.613
 8752WAT     H226659   1.117   4.619   5.609
 8753WAT      O26660   2.194   2.130   6.033
 8753WAT     H126661   2.234   2.215   6.015
 8753WAT     H226662   2.117   2.128   5.977
 8754WAT      O26663   3.606   4.005   4.021
 8754WAT     H126664   3.696   3.989   4.049
 8754WAT     H226665   3.608   3.996   3.926
 8755WAT      O26666   0.231   3.654   5.149
 8755WAT     H126667   0.186   3.739   5.153
 8755WAT     H226668   0.161   3.590   5.157
 8756WAT      O26669   7.394   5.666   3.278
 8756WAT     H126670   7.468   5.629   3.327
 8756WAT     H226671   7.334   5.697   3.345
 8757WAT      O26672   3.965   3.077   3.753
 8757WAT     H126673   3.972   3.126   3.835
 8757WAT     H226674   4.051   3.087   3.712
 8758WAT      O26675   2.962   0.148   6.192
 8758WAT     H126676   2.898   0.163   6.262
 8758WAT     H226677   2.916   0.091   6.130
 8759WAT      O26678   1.719   4.824   3.233
 8759WAT     H126679   1.798   4.771   3.223
 8759WAT     H226680   1.682   4.828   3.146
 8760WAT      O26681   0.635   1.774   0.531
 8760WAT     H126682   0.548   1.777   0.490
 8760WAT     H226683   0.695   1.757   0.458
 8761WAT      O26684   3.916   5.305   0.183
 8761WAT     H126685   3.930   5.225   0.233
 8761WAT     H226686   3.981   5.300   0.112
 8762WAT      O26687   6.041   4.921   5.035
 8762WAT     H126688   6.064   4.862   5.107
 8762WAT     H226689   6.083   4.882   4.958
 8763WAT      O26690   4.646   2.047   2.905
 8763WAT     H126691   4.730   2.002   2.902
 8763WAT     H226692   4.634   2.081   2.816
 8764WAT      O26693   2.115   0.203   2.428
 8764WAT     H126694   2.081   0.151   2.356
 8764WAT     H226695   2.087   0.157   2.507
 8765WAT      O26696   6.562   6.358   4.016
 8765WAT     H126697   6.538   6.296   4.085
 8765WAT     H226698   6.481   6.371   3.966
 8766WAT      O26699   1.777   3.051   3.120
 8766WAT     H126700   1.765   3.143   3.098
 8766WAT     H226701   1.756   3.004   3.040
 8767WAT      O26702   2.057   1.923   3.683
 8767WAT     H126703   2.067   1.855   3.750
 8767WAT     H226704   2.040   2.003   3.733
 8768WAT      O26705   6.338   6.570   3.609
 8768WAT     H126706   6.306   6.634   3.545
 8768WAT     H226707   6.270   6.503   3.613
 8769WAT      O26708   4.576   1.985   4.461
 8769WAT     H126709   4.567   1.890   4.457
 8769WAT     H226710   4.601   2.011   4.373
 8770WAT      O26711   4.848   5.115   2.120
 8770WAT     H126712   4.794   5.133   2.197
 8770WAT     H226713   4.832   5.023   2.099
 8771WAT      O26714   1.771   0.821   1.405
 8771WAT     H126715   1.743   0.832   1.496
 8771WAT     H226716   1.758   0.907   1.365
 8772WAT      O26717   3.225   2.138   3.019
 8772WAT     H126718   3.169   2.117   2.945
 8772WAT     H226719   3.192   2.083   3.091
 8773WAT      O26720   2.244   0.599   0.127
 8773WAT     H126721   2.248   0.619   0.221
 8773WAT     H226722   2.163   0.641   0.098
 8774WAT      O26723   5.143   3.590   0.348
 8774WAT     H126724   5.199   3.656   0.389
 8774WAT     H226725   5.084   3.640   0.293
 8775WAT      O26726   4.484   5.975   0.208
 8775WAT     H126727   4.489   5.999   0.301
 8775WAT     H226728   4.401   6.012   0.179
 8776WAT      O26729   1.944   5.855   1.284
 8776WAT     H126730   1.966   5.765   1.261
 8776WAT     H226731   1.875   5.847   1.351
 8777WAT      O26732   3.043   6.390   2.113
 8777WAT     H126733   3.051   6.296   2.098
 8777WAT     H226734   3.133   6.423   2.108
 8778WAT      O26735   2.779   5.299   1.566
 8778WAT     H126736   2.853   5.342   1.524
 8778WAT     H226737   2.704   5.317   1.509
 8779WAT      O26738   3.772   0.098   2.290
 8779WAT     H126739   3.760   0.105   2.385
 8779WAT     H226740   3.782   0.188   2.260
 8780WAT      O26741   0.833   2.975   0.313
 8780WAT     H126742   0.821   3.068   0.334
 8780WAT     H226743   0.926   2.959   0.329
 8781WAT      O26744   5.568   0.731   4.775
 8781WAT     H126745   5.493   0.679   4.747
 8781WAT     H226746   5.578   0.798   4.708
 8782WAT      O26747   0.817   1.632   3.765
 8782WAT     H126748   0.753   1.573   3.724
 8782WAT     H226749   0.900   1.584   3.759
 8783WAT      O26750   5.293   0.170   1.802
 8783WAT     H126751   5.300   0.245   1.743
 8783WAT     H226752   5.292   0.093   1.744
 8784WAT      O26753   3.039   0.604   2.712
 8784WAT     H126754   3.040   0.700   2.711
 8784WAT     H226755   3.080   0.579   2.629
 8785WAT      O26756   6.226   4.266   1.838
 8785WAT     H126757   6.283   4.343   1.845
 8785WAT     H226758   6.188   4.271   1.751
 8786WAT      O26759   3.571   2.020   5.553
 8786WAT     H126760   3.543   1.942   5.602
 8786WAT     H226761   3.611   2.076   5.620
 8787WAT      O26762   7.480   4.898   3.182
 8787WAT     H126763   7.549   4.942   3.231
 8787WAT     H226764   7.524   4.869   3.101
 8788WAT      O26765   4.929   0.923   5.526
 8788WAT     H126766   4.879   0.864   5.469
 8788WAT     H226767   4.972   0.866   5.589
 8789WAT      O26768   2.186   2.769   0.999
 8789WAT     H126769   2.232   2.722   1.068
 8789WAT     H226770   2.119   2.709   0.968
 8790WAT      O26771   0.912   0.936   0.239
 8790WAT     H126772   0.872   0.872   0.180
 8790WAT     H226773   0.965   0.884   0.300
 8791WAT      O26774   1.524   5.085   1.609
 8791WAT     H126775   1.471   5.094   1.689
 8791WAT     H226776   1.577   5.007   1.625
 8792WAT      O26777   6.003   4.750   4.332
 8792WAT     H126778   5.948   4.789   4.264
 8792WAT     H226779   5.954   4.765   4.413
 8793WAT      O26780   6.472   0.226   0.266
 8793WAT     H126781   6.523   0.280   0.205
 8793WAT     H226782   6.505   0.249   0.353
 8794WAT      O26783   6.083   6.356   5.194
 8794WAT     H126784   5.990   6.343   5.175
 8794WAT     H226785   6.092   6.450   5.203
 8795WAT      O26786   2.591   7.082   2.801
 8795WAT     H126787   2.588   6.993   2.835
 8795WAT     H226788   2.622   7.073   2.712
 8796WAT      O26789   0.033   5.629   5.849
 8796WAT     H126790   0.101   5.693   5.872
 8796WAT     H226791   0.064   5.547   5.888
 8797WAT      O26792   3.008   6.045   4.905
 8797WAT     H126793   2.949   5.991   4.853
 8797WAT     H226794   3.048   6.105   4.843
 8798WAT      O26795   7.588   2.005   0.345
 8798WAT     H126796   7.683   2.009   0.334
 8798WAT     H226797   7.559   1.942   0.281
 8799WAT      O26798   6.117   5.732   3.818
 8799WAT     H126799   6.171   5.655   3.835
 8799WAT     H226800   6.073   5.713   3.735
 8800WAT      O26801   3.973   3.908   4.418
 8800WAT     H126802   4.063   3.889   4.443
 8800WAT     H226803   3.969   3.886   4.325
 8801WAT      O26804   2.413   6.368   5.774
 8801WAT     H126805   2.410   6.328   5.687
 8801WAT     H226806   2.430   6.460   5.757
 8802WAT      O26807   0.285   7.170   1.620
 8802WAT     H126808   0.217   7.104   1.632
 8802WAT     H226809   0.325   7.149   1.535
 8803WAT      O26810   4.346   4.117   1.075
 8803WAT     H126811   4.294   4.119   0.995
 8803WAT     H226812   4.437   4.119   1.045
 8804WAT      O26813   1.231   3.796   3.072
 8804WAT     H126814   1.295   3.725   3.073
 8804WAT     H226815   1.266   3.859   3.008
 8805WAT      O26816   5.883   7.058   5.504
 8805WAT     H126817   5.790   7.034   5.507
 8805WAT     H226818   5.883   7.154   5.514
 8806WAT      O26819   5.471   4.523   5.075
 8806WAT     H126820   5.397   4.535   5.135
 8806WAT     H226821   5.435   4.543   4.988
 8807WAT      O26822   2.665   1.487   2.861
 8807WAT     H126823   2.743   1.543   2.863
 8807WAT     H226824   2.628   1.499   2.774
 8808WAT      O26825   6.190   3.834   0.876
 8808WAT     H126826   6.249   3.908   0.893
 8808WAT     H226827   6.156   3.850   0.788
 8809WAT      O26828   7.304   1.435   5.152
 8809WAT     H126829   7.209   1.446   5.163
 8809WAT     H226830   7.313   1.395   5.066
 8810WAT      O26831   4.425   6.375   5.064
 8810WAT     H126832   4.502   6.417   5.101
 8810WAT     H226833   4.390   6.440   5.002
 8811WAT      O26834   7.576   1.823   5.464
 8811WAT     H126835   7.627   1.904   5.459
 8811WAT     H226836   7.505   1.835   5.401
 8812WAT      O26837   5.573   2.596   2.262
 8812WAT     H126838   5.579   2.501   2.269
 8812WAT     H226839   5.513   2.612   2.189
 8813WAT      O26840   0.527   3.592   4.990
 8813WAT     H126841   0.474   3.668   5.015
 8813WAT     H226842   0.608   3.600   5.040
 8814WAT      O26843   4.457   2.934   1.472
 8814WAT     H126844   4.405   2.856   1.453
 8814WAT     H226845   4.473   2.973   1.386
 8815WAT      O26846   6.320   0.529   4.473
 8815WAT     H126847   6.339   0.584   4.549
 8815WAT     H226848   6.361   0.575   4.400
 8816WAT      O26849   0.456   3.863   3.063
 8816WAT     H126850   0.544   3.831   3.084
 8816WAT     H226851   0.470   3.951   3.028
 8817WAT      O26852   2.327   6.119   0.358
 8817WAT     H126853   2.399   6.061   0.335
 8817WAT     H226854   2.281   6.134   0.275
 8818WAT      O26855   5.065   2.552   0.621
 8818WAT     H126856   5.065   2.647   0.612
 8818WAT     H226857   5.016   2.520   0.545
 8819WAT      O26858   0.469   4.338   6.220
 8819WAT     H126859   0.500   4.400   6.154
 8819WAT     H226860   0.543   4.329   6.281
 8820WAT      O26861   1.279   4.392   5.890
 8820WAT     H126862   1.227   4.433   5.960
 8820WAT     H226863   1.226   4.317   5.862
 8821WAT      O26864   1.590   3.884   0.642
 8821WAT     H126865   1.566   3.942   0.570
 8821WAT     H226866   1.506   3.863   0.684
 8822WAT      O26867   1.504   1.823   0.117
 8822WAT     H126868   1.543   1.802   0.032
 8822WAT     H226869   1.545   1.905   0.143
 8823WAT      O26870   2.654   1.703   0.795
 8823WAT     H126871   2.674   1.744   0.711
 8823WAT     H226872   2.663   1.609   0.778
 8824WAT      O26873   4.509   2.141   1.076
 8824WAT     H126874   4.600   2.165   1.092
 8824WAT     H226875   4.515   2.062   1.022
 8825WAT      O26876   0.583   6.477   2.865
 8825WAT     H126877   0.547   6.394   2.833
 8825WAT     H226878   0.508   6.536   2.869
 8826WAT      O26879   2.971   2.695   6.066
 8826WAT     H126880   3.034   2.647   6.012
 8826WAT     H226881   2.980   2.659   6.153
 8827WAT      O26882   3.939   4.800   0.489
 8827WAT     H126883   4.032   4.805   0.510
 8827WAT     H226884   3.896   4.855   0.554
 8828WAT      O26885   6.953   2.878   0.107
 8828WAT     H126886   6.887   2.946   0.094
 8828WAT     H226887   7.009   2.884   0.029
 8829WAT      O26888   1.151   5.805   0.161
 8829WAT     H126889   1.119   5.758   0.084
 8829WAT     H226890   1.215   5.867   0.127
 8830WAT      O26891   1.265   2.941   0.937
 8830WAT     H126892   1.263   3.020   0.883
 8830WAT     H226893   1.356   2.933   0.964
 8831WAT      O26894   0.954   7.025   1.318
 8831WAT     H126895   0.983   7.051   1.231
 8831WAT     H226896   0.875   7.076   1.334
 8832WAT      O26897   4.949   0.264   3.309
 8832WAT     H126898   4.873   0.315   3.280
 8832WAT     H226899   4.972   0.301   3.394
 8833WAT      O26900   1.295   5.647   3.021
 8833WAT     H126901   1.220   5.690   2.980
 8833WAT     H226902   1.369   5.667   2.964
 8834WAT      O26903   0.332   2.942   3.539
 8834WAT     H126904   0.288   2.861   3.513
 8834WAT     H226905   0.353   2.986   3.456
 8835WAT      O26906   5.008   0.123   4.907
 8835WAT     H126907   5.013   0.029   4.889
 8835WAT     H226908   4.988   0.128   5.000
 8836WAT      O26909   1.662   5.289   5.742
 8836WAT     H126910   1.681   5.204   5.702
 8836WAT     H226911   1.679   5.352   5.672
 8837WAT      O26912   5.952   2.989   0.053
 8837WAT     H126913   5.989   2.986   0.141
 8837WAT     H226914   6.025   3.014  -0.004
 8838WAT      O26915   0.442   6.475   5.042
 8838WAT     H126916   0.525   6.427   5.037
 8838WAT     H226917   0.392   6.446   4.966
 8839WAT      O26918   4.611   3.580   3.595
 8839WAT     H126919   4.558   3.645   3.642
 8839WAT     H226920   4.654   3.630   3.526
 8840WAT      O26921   2.079   3.325   0.148
 8840WAT     H126922   2.023   3.402   0.163
 8840WAT     H226923   2.142   3.327   0.220
 8841WAT      O26924   1.590   5.127   1.164
 8841WAT     H126925   1.513   5.166   1.121
 8841WAT     H226926   1.644   5.202   1.189
 8842WAT      O26927   2.735   6.411   5.880
 8842WAT     H126928   2.790   6.483   5.851
 8842WAT     H226929   2.747   6.343   5.814
 8843WAT      O26930   0.900   4.861   2.388
 8843WAT     H126931   0.862   4.944   2.360
 8843WAT     H226932   0.979   4.851   2.335
 8844WAT      O26933   6.191   1.210   3.225
 8844WAT     H126934   6.257   1.264   3.182
 8844WAT     H226935   6.112   1.264   3.227
 8845WAT      O26936   7.195   3.621   2.917
 8845WAT     H126937   7.215   3.711   2.942
 8845WAT     H226938   7.232   3.611   2.830
 8846WAT      O26939   3.028   2.598   4.515
 8846WAT     H126940   3.035   2.692   4.499
 8846WAT     H226941   3.048   2.588   4.608
 8847WAT      O26942   2.656   4.338   0.883
 8847WAT     H126943   2.566   4.313   0.906
 8847WAT     H226944   2.665   4.312   0.791
 8848WAT      O26945   3.487   2.629   3.527
 8848WAT     H126946   3.523   2.638   3.616
 8848WAT     H226947   3.394   2.651   3.536
 8849WAT      O26948   3.630   5.319   0.858
 8849WAT     H126949   3.581   5.253   0.906
 8849WAT     H226950   3.642   5.390   0.921
 8850WAT      O26951   2.344   2.940   3.702
 8850WAT     H126952   2.357   2.998   3.626
 8850WAT     H226953   2.433   2.922   3.733
 8851WAT      O26954   6.714   4.104   2.523
 8851WAT     H126955   6.771   4.164   2.572
 8851WAT     H226956   6.652   4.161   2.479
 8852WAT      O26957   1.311   1.437   1.830
 8852WAT     H126958   1.383   1.435   1.767
 8852WAT     H226959   1.242   1.385   1.790
 8853WAT      O26960   6.801   3.934   1.137
 8853WAT     H126961   6.731   3.968   1.192
 8853WAT     H226962   6.756   3.875   1.075
 8854WAT      O26963   5.890   6.353   0.447
 8854WAT     H126964   5.896   6.261   0.422
 8854WAT     H226965   5.822   6.390   0.391
 8855WAT      O26966   3.046   4.146   4.529
 8855WAT     H126967   2.995   4.180   4.456
 8855WAT     H226968   3.071   4.058   4.501
 8856WAT      O26969   2.543   2.911   2.189
 8856WAT     H126970   2.582   2.970   2.124
 8856WAT     H226971   2.496   2.847   2.137
 8857WAT      O26972   1.222   1.698   2.873
 8857WAT     H126973   1.234   1.707   2.778
 8857WAT     H226974   1.133   1.730   2.889
 8858WAT      O26975   0.804   4.048   4.994
 8858WAT     H126976   0.774   4.121   4.940
 8858WAT     H226977   0.800   3.971   4.936
 8859WAT      O26978   1.568   5.559   1.200
 8859WAT     H126979   1.544   5.608   1.279
 8859WAT     H226980   1.486   5.518   1.172
 8860WAT      O26981   6.964   0.782   1.037
 8860WAT     H126982   6.915   0.820   0.964
 8860WAT     H226983   6.951   0.843   1.109
 8861WAT      O26984   1.563   1.203   4.214
 8861WAT     H126985   1.469   1.202   4.200
 8861WAT     H226986   1.587   1.110   4.221
 8862WAT      O26987   1.118   0.576   5.520
 8862WAT     H126988   1.179   0.641   5.484
 8862WAT     H226989   1.037   0.588   5.469
 8863WAT      O26990   0.943   2.551   2.075
 8863WAT     H126991   0.892   2.527   1.998
 8863WAT     H226992   0.938   2.647   2.078
 8864WAT      O26993   2.690   1.712   3.060
 8864WAT     H126994   2.766   1.716   3.002
 8864WAT     H226995   2.634   1.644   3.023
 8865WAT      O26996   5.892   1.643   0.387
 8865WAT     H126997   5.930   1.558   0.367
 8865WAT     H226998   5.966   1.697   0.415
 8866WAT      O26999   3.601   3.364   4.965
 8866WAT     H127000   3.579   3.311   4.889
 8866WAT     H227001   3.695   3.351   4.978
 8867WAT      O27002   0.351   3.122   3.323
 8867WAT     H127003   0.395   3.061   3.264
 8867WAT     H227004   0.279   3.158   3.272
 8868WAT      O27005   2.081   4.335   5.086
 8868WAT     H127006   2.088   4.430   5.073
 8868WAT     H227007   2.167   4.301   5.062
 8869WAT      O27008   0.497   5.139   5.558
 8869WAT     H127009   0.513   5.214   5.501
 8869WAT     H227010   0.576   5.085   5.548
 8870WAT      O27011   6.963   3.189   5.231
 8870WAT     H127012   7.050   3.228   5.243
 8870WAT     H227013   6.902   3.258   5.255
 8871WAT      O27014   4.679   2.662   1.315
 8871WAT     H127015   4.662   2.710   1.234
 8871WAT     H227016   4.698   2.730   1.380
 8872WAT      O27017   7.523   3.155   2.086
 8872WAT     H127018   7.446   3.157   2.144
 8872WAT     H227019   7.572   3.234   2.110
 8873WAT      O27020   0.690   2.384   4.649
 8873WAT     H127021   0.622   2.434   4.604
 8873WAT     H227022   0.773   2.418   4.615
 8874WAT      O27023   1.846   7.027   3.111
 8874WAT     H127024   1.882   7.091   3.050
 8874WAT     H227025   1.908   6.954   3.109
 8875WAT      O27026   7.425   5.543   4.492
 8875WAT     H127027   7.385   5.615   4.444
 8875WAT     H227028   7.508   5.527   4.447
 8876WAT      O27029   4.250   0.736   2.921
 8876WAT     H127030   4.226   0.722   2.829
 8876WAT     H227031   4.181   0.692   2.971
 8877WAT      O27032   4.921   0.423   3.539
 8877WAT     H127033   4.849   0.373   3.577
 8877WAT     H227034   4.987   0.425   3.609
 8878WAT      O27035   6.127   3.704   1.850
 8878WAT     H127036   6.063   3.686   1.781
 8878WAT     H227037   6.088   3.774   1.902
 8879WAT      O27038   0.177   0.559   1.494
 8879WAT     H127039   0.097   0.529   1.450
 8879WAT     H227040   0.148   0.629   1.552
 8880WAT      O27041   7.603   5.345   3.783
 8880WAT     H127042   7.512   5.339   3.754
 8880WAT     H227043   7.646   5.270   3.742
 8881WAT      O27044   7.008   1.120   0.683
 8881WAT     H127045   7.017   1.215   0.692
 8881WAT     H227046   7.067   1.096   0.612
 8882WAT      O27047   1.817   4.469   5.027
 8882WAT     H127048   1.842   4.546   4.977
 8882WAT     H227049   1.877   4.401   4.998
 8883WAT      O27050   1.019   2.159   3.725
 8883WAT     H127051   0.946   2.102   3.703
 8883WAT     H227052   1.085   2.101   3.763
 8884WAT      O27053   3.973   0.067   4.751
 8884WAT     H127054   3.882   0.084   4.726
 8884WAT     H227055   3.966   0.011   4.828
 8885WAT      O27056   5.276   3.110   1.062
 8885WAT     H127057   5.202   3.167   1.040
 8885WAT     H227058   5.309   3.145   1.145
 8886WAT      O27059   6.846   3.261   0.123
 8886WAT     H127060   6.836   3.354   0.144
 8886WAT     H227061   6.933   3.238   0.155
 8887WAT      O27062   1.983   2.001   3.240
 8887WAT     H127063   2.002   1.938   3.310
 8887WAT     H227064   1.890   1.988   3.221
 8888WAT      O27065   3.481   0.885   5.842
 8888WAT     H127066   3.551   0.828   5.810
 8888WAT     H227067   3.409   0.870   5.781
 8889WAT      O27068   0.181   3.748   2.257
 8889WAT     H127069   0.132   3.704   2.187
 8889WAT     H227070   0.156   3.702   2.337
 8890WAT      O27071   4.357   4.616   4.568
 8890WAT     H127072   4.294   4.625   4.639
 8890WAT     H227073   4.354   4.700   4.522
 8891WAT      O27074   0.469   1.678   5.175
 8891WAT     H127075   0.477   1.771   5.157
 8891WAT     H227076   0.407   1.646   5.109
 8892WAT      O27077   4.107   1.555   5.665
 8892WAT     H127078   4.023   1.596   5.683
 8892WAT     H227079   4.107   1.538   5.571
 8893WAT      O27080   1.062   3.247   3.427
 8893WAT     H127081   0.994   3.254   3.494
 8893WAT     H227082   1.082   3.153   3.424
 8894WAT      O27083   3.230   1.340   4.662
 8894WAT     H127084   3.284   1.265   4.685
 8894WAT     H227085   3.223   1.337   4.567
 8895WAT      O27086   1.312   0.270   2.785
 8895WAT     H127087   1.248   0.239   2.850
 8895WAT     H227088   1.396   0.267   2.831
 8896WAT      O27089   5.087   5.238   5.111
 8896WAT     H127090   4.999   5.250   5.077
 8896WAT     H227091   5.138   5.309   5.071
 8897WAT      O27092   2.311   3.022   0.248
 8897WAT     H127093   2.250   2.960   0.208
 8897WAT     H227094   2.342   3.076   0.175
 8898WAT      O27095   1.927   0.543   5.629
 8898WAT     H127096   1.953   0.622   5.678
 8898WAT     H227097   1.833   0.554   5.614
 8899WAT      O27098   1.286   5.003   4.078
 8899WAT     H127099   1.335   4.921   4.080
 8899WAT     H227100   1.201   4.980   4.115
 8900WAT      O27101   1.454   0.875   0.697
 8900WAT     H127102   1.515   0.876   0.623
 8900WAT     H227103   1.422   0.966   0.703
 8901WAT      O27104   6.725   0.185   0.407
 8901WAT     H127105   6.782   0.130   0.353
 8901WAT     H227106   6.738   0.154   0.496
 8902WAT      O27107   5.051   6.589   2.780
 8902WAT     H127108   5.019   6.499   2.774
 8902WAT     H227109   5.051   6.620   2.689
 8903WAT      O27110   1.075   2.803   5.976
 8903WAT     H127111   1.157   2.816   5.929
 8903WAT     H227112   1.018   2.874   5.947
 8904WAT      O27113   0.820   5.686   5.978
 8904WAT     H127114   0.862   5.622   6.036
 8904WAT     H227115   0.812   5.641   5.894
 8905WAT      O27116   5.177   0.738   3.536
 8905WAT     H127117   5.258   0.693   3.511
 8905WAT     H227118   5.113   0.712   3.470
 8906WAT      O27119   2.697   5.405   2.310
 8906WAT     H127120   2.664   5.495   2.309
 8906WAT     H227121   2.712   5.384   2.218
 8907WAT      O27122   5.561   0.039   1.954
 8907WAT     H127123   5.565  -0.012   1.872
 8907WAT     H227124   5.486   0.097   1.942
 8908WAT      O27125   3.474   1.272   1.124
 8908WAT     H127126   3.391   1.266   1.078
 8908WAT     H227127   3.506   1.360   1.105
 8909WAT      O27128   4.725   4.110   1.633
 8909WAT     H127129   4.694   4.100   1.543
 8909WAT     H227130   4.794   4.176   1.627
 8910WAT      O27131   7.389   5.815   5.633
 8910WAT     H127132   7.340   5.807   5.714
 8910WAT     H227133   7.464   5.870   5.655
 8911WAT      O27134   5.228   4.361   1.686
 8911WAT     H127135   5.268   4.359   1.599
 8911WAT     H227136   5.299   4.386   1.745
 8912WAT      O27137   6.657   6.525   3.057
 8912WAT     H127138   6.624   6.555   2.973
 8912WAT     H227139   6.579   6.494   3.104
 8913WAT      O27140   2.794   3.873   2.324
 8913WAT     H127141   2.854   3.912   2.387
 8913WAT     H227142   2.747   3.948   2.286
 8914WAT      O27143   6.104   4.384   4.796
 8914WAT     H127144   6.056   4.312   4.756
 8914WAT     H227145   6.153   4.344   4.868
 8915WAT      O27146   7.272   5.722   5.211
 8915WAT     H127147   7.181   5.733   5.237
 8915WAT     H227148   7.311   5.671   5.282
 8916WAT      O27149   4.386   4.045   6.178
 8916WAT     H127150   4.379   4.141   6.176
 8916WAT     H227151   4.309   4.015   6.130
 8917WAT      O27152   0.912   1.616   3.427
 8917WAT     H127153   0.886   1.626   3.335
 8917WAT     H227154   1.004   1.592   3.423
 8918WAT      O27155   4.634   1.305   5.593
 8918WAT     H127156   4.668   1.237   5.534
 8918WAT     H227157   4.559   1.342   5.546
 8919WAT      O27158   4.800   1.632   0.893
 8919WAT     H127159   4.848   1.700   0.940
 8919WAT     H227160   4.840   1.629   0.807
 8920WAT      O27161   4.501   1.424   3.384
 8920WAT     H127162   4.441   1.498   3.377
 8920WAT     H227163   4.448   1.347   3.360
 8921WAT      O27164   1.947   1.090   3.843
 8921WAT     H127165   1.897   1.094   3.762
 8921WAT     H227166   1.881   1.095   3.913
 8922WAT      O27167   5.329   6.036   3.154
 8922WAT     H127168   5.250   6.081   3.123
 8922WAT     H227169   5.391   6.107   3.173
 8923WAT      O27170   6.300   1.590   4.461
 8923WAT     H127171   6.283   1.572   4.554
 8923WAT     H227172   6.395   1.593   4.454
 8924WAT      O27173   7.571   4.980   4.990
 8924WAT     H127174   7.481   5.011   5.000
 8924WAT     H227175   7.582   4.968   4.896
 8925WAT      O27176   4.923   0.840   5.959
 8925WAT     H127177   4.850   0.839   5.897
 8925WAT     H227178   4.923   0.930   5.993
 8926WAT      O27179   4.233   5.865   2.127
 8926WAT     H127180   4.294   5.934   2.100
 8926WAT     H227181   4.210   5.887   2.217
 8927WAT      O27182   1.520   4.679   0.341
 8927WAT     H127183   1.465   4.721   0.275
 8927WAT     H227184   1.553   4.752   0.394
 8928WAT      O27185   2.831   5.166   4.142
 8928WAT     H127186   2.887   5.163   4.064
 8928WAT     H227187   2.772   5.091   4.132
 8929WAT      O27188   5.616   2.980   5.675
 8929WAT     H127189   5.710   2.972   5.692
 8929WAT     H227190   5.605   3.071   5.646
 8930WAT      O27191   1.880   4.404   4.414
 8930WAT     H127192   1.939   4.377   4.344
 8930WAT     H227193   1.828   4.326   4.433
 8931WAT      O27194   1.317   1.327   5.471
 8931WAT     H127195   1.410   1.335   5.450
 8931WAT     H227196   1.288   1.249   5.424
 8932WAT      O27197   5.118   5.171   2.134
 8932WAT     H127198   5.136   5.153   2.226
 8932WAT     H227199   5.023   5.164   2.126
 8933WAT      O27200   2.879   0.907   0.436
 8933WAT     H127201   2.854   0.984   0.385
 8933WAT     H227202   2.937   0.858   0.379
 8934WAT      O27203   0.326   5.077   1.622
 8934WAT     H127204   0.242   5.030   1.623
 8934WAT     H227205   0.391   5.010   1.645
 8935WAT      O27206   7.432   3.655   0.067
 8935WAT     H127207   7.426   3.743   0.030
 8935WAT     H227208   7.506   3.614   0.023
 8936WAT      O27209   0.071   3.805   4.330
 8936WAT     H127210   0.129   3.840   4.398
 8936WAT     H227211   0.001   3.871   4.322
 8937WAT      O27212   2.541   6.798   3.186
 8937WAT     H127213   2.550   6.863   3.256
 8937WAT     H227214   2.477   6.837   3.126
 8938WAT      O27215   3.409   6.801   0.136
 8938WAT     H127216   3.397   6.719   0.184
 8938WAT     H227217   3.461   6.777   0.060
 8939WAT      O27218   2.797   3.568   3.860
 8939WAT     H127219   2.747   3.512   3.802
 8939WAT     H227220   2.794   3.654   3.818
 8940WAT      O27221   1.545   5.472   0.624
 8940WAT     H127222   1.566   5.555   0.581
 8940WAT     H227223   1.585   5.406   0.567
 8941WAT      O27224   0.070   5.716   1.695
 8941WAT     H127225   0.076   5.811   1.708
 8941WAT     H227226   0.074   5.705   1.600
 8942WAT      O27227   5.245   2.097   2.222
 8942WAT     H127228   5.171   2.086   2.282
 8942WAT     H227229   5.232   2.028   2.156
 8943WAT      O27230   3.714   6.744   5.656
 8943WAT     H127231   3.798   6.715   5.620
 8943WAT     H227232   3.651   6.728   5.586
 8944WAT      O27233   1.651   2.268   2.811
 8944WAT     H127234   1.701   2.190   2.784
 8944WAT     H227235   1.705   2.342   2.782
 8945WAT      O27236   3.127   4.035   5.538
 8945WAT     H127237   3.190   3.969   5.566
 8945WAT     H227238   3.141   4.044   5.444
 8946WAT      O27239   2.341   5.706   5.294
 8946WAT     H127240   2.421   5.757   5.311
 8946WAT     H227241   2.283   5.730   5.367
 8947WAT      O27242   6.704   1.952   5.627
 8947WAT     H127243   6.772   1.926   5.689
 8947WAT     H227244   6.650   2.014   5.675
 8948WAT      O27245   6.676   7.156   3.959
 8948WAT     H127246   6.619   7.207   3.901
 8948WAT     H227247   6.641   7.172   4.047
 8949WAT      O27248   2.317   4.088   0.658
 8949WAT     H127249   2.228   4.112   0.632
 8949WAT     H227250   2.308   4.059   0.749
 8950WAT      O27251   4.575   2.693   4.510
 8950WAT     H127252   4.538   2.628   4.450
 8950WAT     H227253   4.668   2.698   4.485
 8951WAT      O27254   5.209   1.551   1.211
 8951WAT     H127255   5.268   1.566   1.137
 8951WAT     H227256   5.268   1.528   1.283
 8952WAT      O27257   6.281   0.125   3.546
 8952WAT     H127258   6.290   0.101   3.453
 8952WAT     H227259   6.318   0.050   3.592
 8953WAT      O27260   4.155   0.554   3.547
 8953WAT     H127261   4.187   0.606   3.622
 8953WAT     H227262   4.155   0.616   3.474
 8954WAT      O27263   6.055   0.571   1.178
 8954WAT     H127264   5.996   0.636   1.217
 8954WAT     H227265   6.130   0.568   1.237
 8955WAT      O27266   2.318   1.737   3.115
 8955WAT     H127267   2.250   1.795   3.079
 8955WAT     H227268   2.323   1.665   3.054
 8956WAT      O27269   6.319   3.679   5.566
 8956WAT     H127270   6.385   3.609   5.575
 8956WAT     H227271   6.236   3.635   5.582
 8957WAT      O27272   3.693   2.100   3.646
 8957WAT     H127273   3.701   2.128   3.555
 8957WAT     H227274   3.704   2.005   3.644
 8958WAT      O27275   4.768   4.241   6.215
 8958WAT     H127276   4.857   4.215   6.193
 8958WAT     H227277   4.723   4.249   6.130
 8959WAT      O27278   0.419   3.932   5.799
 8959WAT     H127279   0.496   3.938   5.856
 8959WAT     H227280   0.450   3.884   5.722
 8960WAT      O27281   5.283   5.315   4.720
 8960WAT     H127282   5.285   5.394   4.667
 8960WAT     H227283   5.276   5.244   4.656
 8961WAT      O27284   4.617   4.117   1.051
 8961WAT     H127285   4.635   4.081   1.137
 8961WAT     H227286   4.660   4.057   0.990
 8962WAT      O27287   0.063   6.941   2.770
 8962WAT     H127288   0.114   6.875   2.815
 8962WAT     H227289   0.122   7.016   2.762
 8963WAT      O27290   6.514   5.229   3.418
 8963WAT     H127291   6.535   5.153   3.473
 8963WAT     H227292   6.538   5.202   3.329
 8964WAT      O27293   2.230   6.764   1.170
 8964WAT     H127294   2.256   6.840   1.119
 8964WAT     H227295   2.203   6.699   1.105
 8965WAT      O27296   0.289   0.403   0.007
 8965WAT     H127297   0.205   0.384  -0.034
 8965WAT     H227298   0.339   0.448  -0.061
 8966WAT      O27299   3.789   1.901   4.123
 8966WAT     H127300   3.845   1.827   4.147
 8966WAT     H227301   3.794   1.906   4.028
 8967WAT      O27302   1.033   4.075   4.431
 8967WAT     H127303   1.091   4.146   4.404
 8967WAT     H227304   1.077   3.996   4.399
 8968WAT      O27305   4.274   0.272   4.557
 8968WAT     H127306   4.365   0.253   4.576
 8968WAT     H227307   4.259   0.360   4.590
 8969WAT      O27308   3.478   5.692   3.616
 8969WAT     H127309   3.469   5.606   3.656
 8969WAT     H227310   3.401   5.741   3.647
 8970WAT      O27311   1.719   1.841   5.088
 8970WAT     H127312   1.638   1.873   5.128
 8970WAT     H227313   1.691   1.769   5.033
 8971WAT      O27314   7.362   4.265   1.368
 8971WAT     H127315   7.281   4.315   1.359
 8971WAT     H227316   7.336   4.182   1.408
 8972WAT      O27317   0.346   0.961   2.783
 8972WAT     H127318   0.434   0.927   2.766
 8972WAT     H227319   0.335   0.952   2.878
 8973WAT      O27320   5.335   0.417   4.516
 8973WAT     H127321   5.405   0.445   4.457
 8973WAT     H227322   5.284   0.354   4.466
 8974WAT      O27323   0.396   3.575   3.657
 8974WAT     H127324   0.379   3.667   3.676
 8974WAT     H227325   0.399   3.570   3.562
 8975WAT      O27326   6.732   5.373   4.909
 8975WAT     H127327   6.812   5.396   4.861
 8975WAT     H227328   6.669   5.349   4.841
 8976WAT      O27329   0.600   4.654   5.197
 8976WAT     H127330   0.693   4.674   5.187
 8976WAT     H227331   0.586   4.578   5.141
 8977WAT      O27332   2.403   4.797   0.771
 8977WAT     H127333   2.360   4.737   0.832
 8977WAT     H227334   2.476   4.747   0.736
 8978WAT      O27335   1.893   3.775   2.903
 8978WAT     H127336   1.866   3.779   2.811
 8978WAT     H227337   1.958   3.705   2.905
 8979WAT      O27338   4.796   2.442   3.556
 8979WAT     H127339   4.804   2.394   3.474
 8979WAT     H227340   4.766   2.529   3.531
 8980WAT      O27341   2.660   6.002   2.970
 8980WAT     H127342   2.625   6.038   2.889
 8980WAT     H227343   2.743   5.961   2.944
 8981WAT      O27344   5.958   0.740   3.750
 8981WAT     H127345   5.880   0.787   3.781
 8981WAT     H227346   5.949   0.739   3.655
 8982WAT      O27347   7.104   5.977   4.759
 8982WAT     H127348   7.068   5.896   4.795
 8982WAT     H227349   7.166   6.007   4.826
 8983WAT      O27350   0.681   0.415   0.225
 8983WAT     H127351   0.633   0.443   0.147
 8983WAT     H227352   0.768   0.454   0.216
 8984WAT      O27353   6.817   5.818   4.972
 8984WAT     H127354   6.810   5.808   4.877
 8984WAT     H227355   6.728   5.838   5.001
 8985WAT      O27356   2.885   1.639   2.885
 8985WAT     H127357   2.848   1.662   2.800
 8985WAT     H227358   2.973   1.608   2.866
 8986WAT      O27359   4.578   5.457   5.772
 8986WAT     H127360   4.528   5.380   5.798
 8986WAT     H227361   4.656   5.455   5.829
 8987WAT      O27362   6.676   6.839   3.010
 8987WAT     H127363   6.652   6.752   2.979
 8987WAT     H227364   6.771   6.843   3.000
 8988WAT      O27365   6.182   1.188   1.557
 8988WAT     H127366   6.188   1.224   1.646
 8988WAT     H227367   6.144   1.259   1.505
 8989WAT      O27368   0.892   1.717   1.574
 8989WAT     H127369   0.863   1.657   1.643
 8989WAT     H227370   0.824   1.712   1.508
 8990WAT      O27371   7.224   5.865   2.034
 8990WAT     H127372   7.171   5.824   2.102
 8990WAT     H227373   7.277   5.793   1.999
 8991WAT      O27374   7.137   0.900   2.616
 8991WAT     H127375   7.143   0.974   2.677
 8991WAT     H227376   7.115   0.940   2.532
 8992WAT      O27377   4.560   4.316   2.281
 8992WAT     H127378   4.516   4.285   2.201
 8992WAT     H227379   4.648   4.340   2.252
 8993WAT      O27380   0.850   0.404   2.822
 8993WAT     H127381   0.812   0.448   2.898
 8993WAT     H227382   0.781   0.407   2.756
 8994WAT      O27383   5.001   6.984   3.777
 8994WAT     H127384   4.909   6.998   3.754
 8994WAT     H227385   5.041   7.070   3.771
 8995WAT      O27386   5.749   2.617   1.932
 8995WAT     H127387   5.793   2.532   1.940
 8995WAT     H227388   5.729   2.625   1.839
 8996WAT      O27389   3.505   2.637   5.277
 8996WAT     H127390   3.415   2.618   5.253
 8996WAT     H227391   3.554   2.560   5.249
 8997WAT      O27392   1.135   4.572   2.608
 8997WAT     H127393   1.063   4.509   2.600
 8997WAT     H227394   1.213   4.523   2.582
 8998WAT      O27395   0.542   3.444   4.777
 8998WAT     H127396   0.456   3.401   4.773
 8998WAT     H227397   0.530   3.514   4.842
 8999WAT      O27398   1.397   6.282   6.041
 8999WAT     H127399   1.476   6.308   5.992
 8999WAT     H227400   1.331   6.346   6.015
 9000WAT      O27401   0.948   4.921   0.882
 9000WAT     H127402   1.033   4.881   0.862
 9000WAT     H227403   0.966   4.977   0.958
 9001WAT      O27404   3.078   3.196   3.823
 9001WAT     H127405   3.160   3.147   3.817
 9001WAT     H227406   3.061   3.226   3.734
 9002WAT      O27407   1.762   2.034   1.651
 9002WAT     H127408   1.800   1.967   1.708
 9002WAT     H227409   1.682   1.994   1.617
 9003WAT      O27410   7.432   6.557   3.883
 9003WAT     H127411   7.410   6.511   3.802
 9003WAT     H227412   7.521   6.528   3.903
 9004WAT      O27413   2.689   6.860   2.336
 9004WAT     H127414   2.779   6.888   2.320
 9004WAT     H227415   2.678   6.783   2.280
 9005WAT      O27416   2.121   2.886   3.520
 9005WAT     H127417   2.195   2.880   3.581
 9005WAT     H227418   2.115   2.979   3.499
 9006WAT      O27419   4.373   4.304   6.180
 9006WAT     H127420   4.338   4.366   6.243
 9006WAT     H227421   4.413   4.358   6.111
 9007WAT      O27422   3.035   6.923   2.837
 9007WAT     H127423   3.010   6.872   2.760
 9007WAT     H227424   3.090   6.994   2.803
 9008WAT      O27425   1.568   4.782   1.617
 9008WAT     H127426   1.515   4.705   1.635
 9008WAT     H227427   1.584   4.779   1.522
 9009WAT      O27428   7.192   4.428   4.749
 9009WAT     H127429   7.200   4.436   4.654
 9009WAT     H227430   7.177   4.335   4.763
 9010WAT      O27431   3.350   4.357   3.737
 9010WAT     H127432   3.271   4.319   3.776
 9010WAT     H227433   3.338   4.345   3.642
 9011WAT      O27434   5.603   4.383   5.887
 9011WAT     H127435   5.543   4.453   5.863
 9011WAT     H227436   5.547   4.309   5.911
 9012WAT      O27437   3.242   2.926   1.193
 9012WAT     H127438   3.239   2.965   1.105
 9012WAT     H227439   3.196   2.990   1.248
 9013WAT      O27440   4.929   5.586   4.325
 9013WAT     H127441   4.926   5.499   4.365
 9013WAT     H227442   4.837   5.610   4.313
 9014WAT      O27443   6.043   3.577   0.507
 9014WAT     H127444   5.973   3.637   0.534
 9014WAT     H227445   5.999   3.513   0.451
 9015WAT      O27446   1.127   3.632   1.679
 9015WAT     H127447   1.221   3.616   1.674
 9015WAT     H227448   1.094   3.563   1.736
 9016WAT      O27449   6.946   0.899   3.968
 9016WAT     H127450   6.869   0.924   4.019
 9016WAT     H227451   7.020   0.909   4.028
 9017WAT      O27452   1.885   6.015   2.393
 9017WAT     H127453   1.852   6.013   2.303
 9017WAT     H227454   1.924   6.102   2.402
 9018WAT      O27455   6.948   4.154   2.323
 9018WAT     H127456   6.878   4.134   2.385
 9018WAT     H227457   7.024   4.105   2.357
 9019WAT      O27458   7.532   3.338   0.865
 9019WAT     H127459   7.605   3.285   0.831
 9019WAT     H227460   7.455   3.305   0.819
 9020WAT      O27461   5.251   0.432   3.526
 9020WAT     H127462   5.331   0.398   3.487
 9020WAT     H227463   5.279   0.468   3.610
 9021WAT      O27464   1.816   0.624   2.831
 9021WAT     H127465   1.728   0.587   2.822
 9021WAT     H227466   1.821   0.690   2.762
 9022WAT      O27467   4.997   5.780   2.794
 9022WAT     H127468   5.086   5.771   2.760
 9022WAT     H227469   4.977   5.695   2.833
 9023WAT      O27470   4.625   0.584   4.704
 9023WAT     H127471   4.673   0.665   4.684
 9023WAT     H227472   4.693   0.517   4.707
 9024WAT      O27473   0.841   5.578   5.096
 9024WAT     H127474   0.749   5.552   5.100
 9024WAT     H227475   0.888   5.499   5.071
 9025WAT      O27476   7.225   1.515   3.931
 9025WAT     H127477   7.318   1.515   3.953
 9025WAT     H227478   7.189   1.589   3.980
 9026WAT      O27479   3.806   3.197   0.510
 9026WAT     H127480   3.882   3.156   0.468
 9026WAT     H227481   3.772   3.257   0.443
 9027WAT      O27482   7.565   1.881   2.551
 9027WAT     H127483   7.550   1.949   2.484
 9027WAT     H227484   7.630   1.919   2.610
 9028WAT      O27485   5.660   4.734   4.233
 9028WAT     H127486   5.613   4.651   4.232
 9028WAT     H227487   5.715   4.730   4.155
 9029WAT      O27488   4.026   6.887   4.482
 9029WAT     H127489   4.121   6.884   4.489
 9029WAT     H227490   3.996   6.805   4.521
 9030WAT      O27491   4.824   4.632   4.557
 9030WAT     H127492   4.892   4.601   4.498
 9030WAT     H227493   4.802   4.719   4.524
 9031WAT      O27494   0.392   1.722   1.879
 9031WAT     H127495   0.325   1.759   1.936
 9031WAT     H227496   0.470   1.717   1.934
 9032WAT      O27497   4.722   2.655   3.416
 9032WAT     H127498   4.729   2.651   3.321
 9032WAT     H227499   4.701   2.747   3.435
 9033WAT      O27500   5.675   3.064   3.934
 9033WAT     H127501   5.733   3.121   3.985
 9033WAT     H227502   5.688   3.092   3.843
 9034WAT      O27503   6.563   6.079   5.293
 9034WAT     H127504   6.473   6.099   5.267
 9034WAT     H227505   6.556   5.997   5.342
 9035WAT      O27506   2.267   6.289   4.826
 9035WAT     H127507   2.323   6.365   4.814
 9035WAT     H227508   2.179   6.326   4.839
 9036WAT      O27509   2.761   1.451   1.468
 9036WAT     H127510   2.804   1.439   1.383
 9036WAT     H227511   2.782   1.541   1.492
 9037WAT      O27512   2.857   5.470   2.584
 9037WAT     H127513   2.938   5.480   2.535
 9037WAT     H227514   2.862   5.536   2.653
 9038WAT      O27515   2.915   4.638   4.669
 9038WAT     H127516   2.874   4.619   4.584
 9038WAT     H227517   2.884   4.569   4.727
 9039WAT      O27518   5.681   5.963   5.066
 9039WAT     H127519   5.665   5.982   4.973
 9039WAT     H227520   5.702   5.870   5.069
 9040WAT      O27521   4.565   2.993   4.369
 9040WAT     H127522   4.648   2.989   4.418
 9040WAT     H227523   4.497   2.995   4.436
 9041WAT      O27524   3.230   0.508   2.501
 9041WAT     H127525   3.305   0.564   2.483
 9041WAT     H227526   3.173   0.519   2.425
 9042WAT      O27527   1.368   4.790   5.503
 9042WAT     H127528   1.374   4.837   5.420
 9042WAT     H227529   1.459   4.771   5.526
 9043WAT      O27530   2.394   6.937   1.030
 9043WAT     H127531   2.442   6.854   1.025
 9043WAT     H227532   2.451   7.000   0.985
 9044WAT      O27533   5.474   2.041   3.520
 9044WAT     H127534   5.538   2.067   3.453
 9044WAT     H227535   5.514   1.966   3.563
 9045WAT      O27536   1.222   3.488   2.469
 9045WAT     H127537   1.168   3.478   2.548
 9045WAT     H227538   1.243   3.581   2.466
 9046WAT      O27539   3.957   1.641   2.095
 9046WAT     H127540   3.914   1.557   2.087
 9046WAT     H227541   3.912   1.698   2.033
 9047WAT      O27542   2.313   3.664   2.697
 9047WAT     H127543   2.310   3.745   2.747
 9047WAT     H227544   2.317   3.595   2.764
 9048WAT      O27545   2.988   3.907   0.314
 9048WAT     H127546   2.935   3.986   0.312
 9048WAT     H227547   3.004   3.886   0.222
 9049WAT      O27548   4.265   5.524   3.951
 9049WAT     H127549   4.285   5.491   3.864
 9049WAT     H227550   4.345   5.510   4.002
 9050WAT      O27551   2.639   1.286   1.839
 9050WAT     H127552   2.632   1.207   1.891
 9050WAT     H227553   2.715   1.332   1.875
 9051WAT      O27554   0.839   2.531   6.229
 9051WAT     H127555   0.908   2.483   6.183
 9051WAT     H227556   0.797   2.464   6.284
 9052WAT      O27557   2.334   2.259   3.413
 9052WAT     H127558   2.422   2.277   3.380
 9052WAT     H227559   2.305   2.182   3.364
 9053WAT      O27560   1.737   0.507   5.295
 9053WAT     H127561   1.649   0.479   5.270
 9053WAT     H227562   1.796   0.452   5.242
 9054WAT      O27563   6.871   1.680   2.106
 9054WAT     H127564   6.806   1.728   2.053
 9054WAT     H227565   6.854   1.708   2.196
 9055WAT      O27566   6.018   1.579   6.183
 9055WAT     H127567   6.048   1.595   6.093
 9055WAT     H227568   6.093   1.537   6.226
 9056WAT      O27569   1.448   4.074   1.892
 9056WAT     H127570   1.491   4.149   1.851
 9056WAT     H227571   1.387   4.042   1.826
 9057WAT      O27572   3.155   1.365   2.609
 9057WAT     H127573   3.127   1.357   2.518
 9057WAT     H227574   3.179   1.458   2.618
 9058WAT      O27575   2.961   5.762   3.487
 9058WAT     H127576   2.908   5.690   3.452
 9058WAT     H227577   2.899   5.833   3.500
 9059WAT      O27578   2.443   1.485   1.748
 9059WAT     H127579   2.518   1.453   1.797
 9059WAT     H227580   2.477   1.501   1.660
 9060WAT      O27581   2.366   1.750   6.011
 9060WAT     H127582   2.366   1.846   6.007
 9060WAT     H227583   2.274   1.726   6.002
 9061WAT      O27584   0.109   0.777   1.256
 9061WAT     H127585   0.059   0.723   1.194
 9061WAT     H227586   0.201   0.764   1.230
 9062WAT      O27587   7.506   4.958   4.422
 9062WAT     H127588   7.460   4.874   4.425
 9062WAT     H227589   7.479   4.997   4.339
 9063WAT      O27590   5.256   5.901   4.461
 9063WAT     H127591   5.195   5.903   4.387
 9063WAT     H227592   5.209   5.852   4.529
 9064WAT      O27593   1.581   4.747   1.323
 9064WAT     H127594   1.501   4.799   1.330
 9064WAT     H227595   1.565   4.688   1.249
 9065WAT      O27596   6.690   0.752   0.683
 9065WAT     H127597   6.622   0.819   0.688
 9065WAT     H227598   6.767   0.794   0.722
 9066WAT      O27599   5.640   0.599   5.076
 9066WAT     H127600   5.727   0.633   5.056
 9066WAT     H227601   5.656   0.515   5.119
 9067WAT      O27602   4.237   6.496   4.330
 9067WAT     H127603   4.252   6.460   4.243
 9067WAT     H227604   4.323   6.527   4.358
 9068WAT      O27605   0.356   1.797   0.465
 9068WAT     H127606   0.328   1.711   0.433
 9068WAT     H227607   0.358   1.852   0.387
 9069WAT      O27608   0.874   0.319   5.558
 9069WAT     H127609   0.917   0.264   5.624
 9069WAT     H227610   0.843   0.395   5.608
 9070WAT      O27611   3.143   3.160   1.736
 9070WAT     H127612   3.111   3.247   1.711
 9070WAT     H227613   3.069   3.120   1.782
 9071WAT      O27614   2.045   6.594   4.850
 9071WAT     H127615   2.104   6.631   4.785
 9071WAT     H227616   2.037   6.502   4.826
 9072WAT      O27617   1.881   3.007   4.005
 9072WAT     H127618   1.960   2.953   4.003
 9072WAT     H227619   1.809   2.944   4.006
 9073WAT      O27620   4.852   3.369   3.346
 9073WAT     H127621   4.885   3.432   3.282
 9073WAT     H227622   4.929   3.318   3.372
 9074WAT      O27623   2.752   1.664   5.514
 9074WAT     H127624   2.662   1.672   5.483
 9074WAT     H227625   2.802   1.644   5.435
 9075WAT      O27626   4.562   3.912   0.764
 9075WAT     H127627   4.561   4.000   0.726
 9075WAT     H227628   4.589   3.856   0.691
 9076WAT      O27629   5.293   3.773   1.170
 9076WAT     H127630   5.257   3.803   1.087
 9076WAT     H227631   5.385   3.752   1.150
 9077WAT      O27632   6.530   2.630   0.444
 9077WAT     H127633   6.461   2.689   0.414
 9077WAT     H227634   6.604   2.687   0.466
 9078WAT      O27635   1.136   6.180   2.106
 9078WAT     H127636   1.135   6.135   2.191
 9078WAT     H227637   1.077   6.128   2.051
 9079WAT      O27638   5.806   0.361   0.483
 9079WAT     H127639   5.734   0.326   0.534
 9079WAT     H227640   5.771   0.372   0.394
 9080WAT      O27641   5.518   1.180   0.765
 9080WAT     H127642   5.569   1.099   0.776
 9080WAT     H227643   5.520   1.197   0.671
 9081WAT      O27644   1.531   1.888   1.396
 9081WAT     H127645   1.494   1.953   1.456
 9081WAT     H227646   1.508   1.920   1.309
 9082WAT      O27647   3.347   6.672   5.916
 9082WAT     H127648   3.311   6.738   5.975
 9082WAT     H227649   3.418   6.631   5.966
 9083WAT      O27650   3.547   1.344   2.288
 9083WAT     H127651   3.492   1.344   2.366
 9083WAT     H227652   3.617   1.405   2.308
 9084WAT      O27653   5.434   5.970   5.845
 9084WAT     H127654   5.348   5.991   5.808
 9084WAT     H227655   5.451   5.881   5.817
 9085WAT      O27656   2.068   4.129   3.926
 9085WAT     H127657   1.991   4.080   3.896
 9085WAT     H227658   2.086   4.191   3.856
 9086WAT      O27659   7.325   2.815   3.636
 9086WAT     H127660   7.231   2.823   3.649
 9086WAT     H227661   7.337   2.730   3.594
 9087WAT      O27662   5.056   0.531   3.832
 9087WAT     H127663   5.001   0.597   3.790
 9087WAT     H227664   5.000   0.491   3.898
 9088WAT      O27665   1.252   0.399   1.626
 9088WAT     H127666   1.191   0.405   1.554
 9088WAT     H227667   1.208   0.443   1.699
 9089WAT      O27668   2.892   1.514   4.601
 9089WAT     H127669   2.919   1.565   4.525
 9089WAT     H227670   2.958   1.533   4.668
 9090WAT      O27671   1.106   0.535   2.973
 9090WAT     H127672   1.126   0.629   2.967
 9090WAT     H227673   1.052   0.517   2.897
 9091WAT      O27674   5.137   3.573   1.294
 9091WAT     H127675   5.200   3.643   1.276
 9091WAT     H227676   5.069   3.585   1.228
 9092WAT      O27677   1.450   6.387   1.037
 9092WAT     H127678   1.489   6.335   1.108
 9092WAT     H227679   1.367   6.418   1.074
 9093WAT      O27680   6.249   1.168   2.304
 9093WAT     H127681   6.172   1.193   2.356
 9093WAT     H227682   6.322   1.211   2.348
 9094WAT      O27683   1.004   3.563   0.984
 9094WAT     H127684   0.988   3.656   0.964
 9094WAT     H227685   1.059   3.532   0.912
 9095WAT      O27686   5.202   6.586   0.954
 9095WAT     H127687   5.231   6.578   0.863
 9095WAT     H227688   5.142   6.512   0.967
 9096WAT      O27689   0.931   2.658   3.550
 9096WAT     H127690   0.966   2.575   3.582
 9096WAT     H227691   1.008   2.715   3.542
 9097WAT      O27692   5.156   2.258   5.381
 9097WAT     H127693   5.098   2.299   5.445
 9097WAT     H227694   5.243   2.291   5.403
 9098WAT      O27695   6.306   3.604   3.323
 9098WAT     H127696   6.344   3.524   3.286
 9098WAT     H227697   6.212   3.587   3.327
 9099WAT      O27698   4.324   3.750   3.901
 9099WAT     H127699   4.233   3.726   3.880
 9099WAT     H227700   4.361   3.670   3.938
 9100WAT      O27701   0.786   3.780   6.056
 9100WAT     H127702   0.717   3.845   6.049
 9100WAT     H227703   0.838   3.791   5.976
 9101WAT      O27704   3.059   2.847   4.456
 9101WAT     H127705   3.017   2.894   4.527
 9101WAT     H227706   3.149   2.879   4.456
 9102WAT      O27707   2.910   6.239   3.443
 9102WAT     H127708   2.855   6.315   3.421
 9102WAT     H227709   2.903   6.231   3.538
 9103WAT      O27710   0.558   2.627   1.980
 9103WAT     H127711   0.627   2.562   1.973
 9103WAT     H227712   0.518   2.629   1.893
 9104WAT      O27713   0.822   5.583   0.565
 9104WAT     H127714   0.813   5.488   0.572
 9104WAT     H227715   0.880   5.596   0.490
 9105WAT      O27716   2.879   0.191   3.910
 9105WAT     H127717   2.942   0.255   3.876
 9105WAT     H227718   2.826   0.242   3.973
 9106WAT      O27719   4.241   4.512   3.059
 9106WAT     H127720   4.232   4.546   2.970
 9106WAT     H227721   4.169   4.451   3.069
 9107WAT      O27722   1.799   2.012   5.331
 9107WAT     H127723   1.706   1.989   5.320
 9107WAT     H227724   1.845   1.956   5.268
 9108WAT      O27725   2.033   1.821   3.435
 9108WAT     H127726   2.002   1.734   3.458
 9108WAT     H227727   2.038   1.867   3.518
 9109WAT      O27728   6.475   6.104   0.123
 9109WAT     H127729   6.422   6.134   0.197
 9109WAT     H227730   6.443   6.153   0.048
 9110WAT      O27731   6.856   4.768   4.705
 9110WAT     H127732   6.877   4.831   4.636
 9110WAT     H227733   6.767   4.791   4.733
 9111WAT      O27734   6.977   0.724   2.195
 9111WAT     H127735   6.971   0.764   2.108
 9111WAT     H227736   6.888   0.728   2.229
 9112WAT      O27737   2.935   0.910   3.277
 9112WAT     H127738   2.950   0.972   3.206
 9112WAT     H227739   2.921   0.965   3.354
 9113WAT      O27740   4.536   4.018   0.473
 9113WAT     H127741   4.457   4.064   0.444
 9113WAT     H227742   4.575   4.075   0.538
 9114WAT      O27743   5.245   6.044   2.842
 9114WAT     H127744   5.327   6.089   2.820
 9114WAT     H227745   5.181   6.080   2.781
 9115WAT      O27746   6.615   5.617   4.460
 9115WAT     H127747   6.547   5.633   4.395
 9115WAT     H227748   6.568   5.595   4.540
 9116WAT      O27749   7.066   3.366   2.240
 9116WAT     H127750   7.144   3.418   2.258
 9116WAT     H227751   7.034   3.399   2.156
 9117WAT      O27752   1.338   0.049   2.594
 9117WAT     H127753   1.351   0.061   2.499
 9117WAT     H227754   1.312   0.136   2.625
 9118WAT      O27755   2.352   1.969   5.592
 9118WAT     H127756   2.270   1.947   5.549
 9118WAT     H227757   2.331   1.972   5.686
 9119WAT      O27758   4.929   3.754   4.190
 9119WAT     H127759   4.968   3.668   4.176
 9119WAT     H227760   4.984   3.795   4.257
 9120WAT      O27761   4.434   6.678   0.098
 9120WAT     H127762   4.360   6.618   0.091
 9120WAT     H227763   4.478   6.672   0.013
 9121WAT      O27764   3.639   1.402   6.148
 9121WAT     H127765   3.648   1.314   6.112
 9121WAT     H227766   3.549   1.428   6.127
 9122WAT      O27767   2.298   1.597   5.429
 9122WAT     H127768   2.330   1.511   5.402
 9122WAT     H227769   2.377   1.652   5.432
 9123WAT      O27770   5.704   5.698   5.011
 9123WAT     H127771   5.793   5.666   4.995
 9123WAT     H227772   5.647   5.628   4.980
 9124WAT      O27773   6.058   4.923   6.090
 9124WAT     H127774   6.098   4.992   6.143
 9124WAT     H227775   5.992   4.884   6.146
 9125WAT      O27776   4.984   0.036   2.424
 9125WAT     H127777   4.986   0.013   2.517
 9125WAT     H227778   4.954  -0.044   2.380
 9126WAT      O27779   6.803   2.262   3.444
 9126WAT     H127780   6.828   2.346   3.406
 9126WAT     H227781   6.710   2.253   3.422
 9127WAT      O27782   5.294   4.956   3.943
 9127WAT     H127783   5.385   4.982   3.933
 9127WAT     H227784   5.254   4.976   3.858
 9128WAT      O27785   1.239   0.157   4.954
 9128WAT     H127786   1.210   0.192   4.870
 9128WAT     H227787   1.277   0.072   4.933
 9129WAT      O27788   1.086   6.562   4.593
 9129WAT     H127789   0.997   6.597   4.586
 9129WAT     H227790   1.130   6.591   4.513
 9130WAT      O27791   3.969   7.087   4.019
 9130WAT     H127792   3.876   7.079   4.038
 9130WAT     H227793   3.973   7.110   3.926
 9131WAT      O27794   1.779   3.049   1.034
 9131WAT     H127795   1.854   3.105   1.056
 9131WAT     H227796   1.792   3.026   0.942
 9132WAT      O27797   3.224   3.177   4.407
 9132WAT     H127798   3.204   3.098   4.356
 9132WAT     H227799   3.140   3.202   4.445
 9133WAT      O27800   5.932   3.725   5.240
 9133WAT     H127801   6.006   3.785   5.250
 9133WAT     H227802   5.903   3.737   5.149
 9134WAT      O27803   7.548   2.392   3.092
 9134WAT     H127804   7.501   2.426   3.016
 9134WAT     H227805   7.518   2.302   3.100
 9135WAT      O27806   2.330   1.992   0.691
 9135WAT     H127807   2.378   2.033   0.763
 9135WAT     H227808   2.346   1.898   0.704
 9136WAT      O27809   4.514   4.277   0.141
 9136WAT     H127810   4.441   4.338   0.146
 9136WAT     H227811   4.558   4.285   0.226
 9137WAT      O27812   3.700   4.769   6.063
 9137WAT     H127813   3.732   4.859   6.060
 9137WAT     H227814   3.670   4.752   5.973
 9138WAT      O27815   6.106   1.268   5.464
 9138WAT     H127816   6.176   1.332   5.480
 9138WAT     H227817   6.152   1.190   5.433
 9139WAT      O27818   6.504   7.001   1.955
 9139WAT     H127819   6.527   6.943   1.882
 9139WAT     H227820   6.465   7.077   1.913
 9140WAT      O27821   1.649   2.693   2.690
 9140WAT     H127822   1.697   2.612   2.708
 9140WAT     H227823   1.643   2.697   2.595
 9141WAT      O27824   1.770   1.993   2.386
 9141WAT     H127825   1.813   1.925   2.334
 9141WAT     H227826   1.740   2.058   2.322
 9142WAT      O27827   7.043   4.037   4.114
 9142WAT     H127828   7.005   4.070   4.033
 9142WAT     H227829   7.021   3.943   4.114
 9143WAT      O27830   1.241   5.557   3.813
 9143WAT     H127831   1.205   5.561   3.725
 9143WAT     H227832   1.215   5.470   3.845
 9144WAT      O27833   6.609   4.766   1.308
 9144WAT     H127834   6.651   4.683   1.285
 9144WAT     H227835   6.564   4.794   1.228
 9145WAT      O27836   2.189   3.772   0.892
 9145WAT     H127837   2.123   3.829   0.932
 9145WAT     H227838   2.261   3.772   0.955
 9146WAT      O27839   5.734   6.589   2.483
 9146WAT     H127840   5.814   6.577   2.431
 9146WAT     H227841   5.664   6.557   2.426
 9147WAT      O27842   5.282   3.899   0.891
 9147WAT     H127843   5.195   3.923   0.857
 9147WAT     H227844   5.340   3.905   0.815
 9148WAT      O27845   3.272   5.634   4.360
 9148WAT     H127846   3.350   5.642   4.304
 9148WAT     H227847   3.257   5.540   4.366
 9149WAT      O27848   7.119   3.702   3.666
 9149WAT     H127849   7.092   3.614   3.641
 9149WAT     H227850   7.181   3.689   3.737
 9150WAT      O27851   5.872   5.564   0.410
 9150WAT     H127852   5.857   5.642   0.356
 9150WAT     H227853   5.785   5.531   0.431
 9151WAT      O27854   0.207   2.660   6.177
 9151WAT     H127855   0.144   2.732   6.167
 9151WAT     H227856   0.289   2.703   6.203
 9152WAT      O27857   5.381   5.040   3.235
 9152WAT     H127858   5.382   5.068   3.144
 9152WAT     H227859   5.326   5.105   3.279
 9153WAT      O27860   3.382   3.892   1.406
 9153WAT     H127861   3.465   3.846   1.399
 9153WAT     H227862   3.316   3.825   1.389
 9154WAT      O27863   2.988   5.299   2.187
 9154WAT     H127864   2.937   5.372   2.153
 9154WAT     H227865   3.008   5.246   2.110
 9155WAT      O27866   7.147   3.373   1.535
 9155WAT     H127867   7.176   3.312   1.603
 9155WAT     H227868   7.099   3.441   1.582
 9156WAT      O27869   5.538   2.206   3.927
 9156WAT     H127870   5.572   2.128   3.884
 9156WAT     H227871   5.495   2.255   3.857
 9157WAT      O27872   0.557   7.022   2.649
 9157WAT     H127873   0.495   7.003   2.578
 9157WAT     H227874   0.559   6.942   2.701
 9158WAT      O27875   2.141   1.463   5.808
 9158WAT     H127876   2.126   1.551   5.841
 9158WAT     H227877   2.146   1.473   5.713
 9159WAT      O27878   3.785   5.536   3.812
 9159WAT     H127879   3.773   5.628   3.789
 9159WAT     H227880   3.765   5.532   3.906
 9160WAT      O27881   7.230   7.156   2.679
 9160WAT     H127882   7.308   7.127   2.631
 9160WAT     H227883   7.186   7.216   2.619
 9161WAT      O27884   3.793   1.915   3.021
 9161WAT     H127885   3.859   1.961   2.968
 9161WAT     H227886   3.754   1.851   2.962
 9162WAT      O27887   1.447   3.181   0.597
 9162WAT     H127888   1.481   3.258   0.552
 9162WAT     H227889   1.411   3.127   0.527
 9163WAT      O27890   5.522   4.188   1.892
 9163WAT     H127891   5.590   4.235   1.844
 9163WAT     H227892   5.527   4.098   1.861
 9164WAT      O27893   3.446   3.544   4.366
 9164WAT     H127894   3.468   3.463   4.412
 9164WAT     H227895   3.517   3.604   4.387
 9165WAT      O27896   6.162   3.334   5.718
 9165WAT     H127897   6.080   3.335   5.670
 9165WAT     H227898   6.230   3.336   5.651
 9166WAT      O27899   6.356   1.883   4.475
 9166WAT     H127900   6.345   1.932   4.394
 9166WAT     H227901   6.379   1.795   4.447
 9167WAT      O27902   2.085   2.785   4.936
 9167WAT     H127903   2.104   2.761   4.845
 9167WAT     H227904   2.112   2.708   4.987
 9168WAT      O27905   4.676   4.717   5.951
 9168WAT     H127906   4.636   4.732   5.865
 9168WAT     H227907   4.747   4.781   5.955
 9169WAT      O27908   1.356   2.230   5.336
 9169WAT     H127909   1.405   2.154   5.303
 9169WAT     H227910   1.304   2.259   5.262
 9170WAT      O27911   1.640   7.170   1.687
 9170WAT     H127912   1.714   7.110   1.677
 9170WAT     H227913   1.646   7.229   1.612
 9171WAT      O27914   3.063   1.520   4.796
 9171WAT     H127915   3.116   1.599   4.805
 9171WAT     H227916   3.122   1.457   4.753
 9172WAT      O27917   6.893   0.484   5.744
 9172WAT     H127918   6.840   0.432   5.683
 9172WAT     H227919   6.955   0.531   5.688
 9173WAT      O27920   1.956   0.143   5.383
 9173WAT     H127921   1.984   0.054   5.401
 9173WAT     H227922   1.867   0.148   5.419
 9174WAT      O27923   5.634   4.741   0.537
 9174WAT     H127924   5.702   4.704   0.481
 9174WAT     H227925   5.556   4.745   0.480
 9175WAT      O27926   7.391   5.156   4.893
 9175WAT     H127927   7.331   5.144   4.819
 9175WAT     H227928   7.336   5.186   4.965
 9176WAT      O27929   4.402   1.676   2.813
 9176WAT     H127930   4.408   1.691   2.719
 9176WAT     H227931   4.361   1.590   2.822
 9177WAT      O27932   3.606   1.634   4.229
 9177WAT     H127933   3.682   1.691   4.217
 9177WAT     H227934   3.619   1.563   4.167
 9178WAT      O27935   2.253   0.218   4.836
 9178WAT     H127936   2.239   0.214   4.741
 9178WAT     H227937   2.166   0.199   4.873
 9179WAT      O27938   7.536   5.504   3.460
 9179WAT     H127939   7.538   5.444   3.386
 9179WAT     H227940   7.629   5.519   3.480
 9180WAT      O27941   4.389   0.303   5.294
 9180WAT     H127942   4.460   0.366   5.280
 9180WAT     H227943   4.322   0.329   5.231
 9181WAT      O27944   0.094   3.668   0.817
 9181WAT     H127945   0.019   3.725   0.798
 9181WAT     H227946   0.072   3.584   0.777
 9182WAT      O27947   3.725   4.841   5.513
 9182WAT     H127948   3.755   4.779   5.447
 9182WAT     H227949   3.631   4.850   5.497
 9183WAT      O27950   3.185   4.457   4.951
 9183WAT     H127951   3.207   4.480   4.860
 9183WAT     H227952   3.102   4.501   4.967
 9184WAT      O27953   1.711   0.563   5.926
 9184WAT     H127954   1.685   0.572   5.834
 9184WAT     H227955   1.729   0.469   5.937
 9185WAT      O27956   5.794   5.940   1.593
 9185WAT     H127957   5.829   6.003   1.656
 9185WAT     H227958   5.838   5.961   1.511
 9186WAT      O27959   1.049   3.030   4.276
 9186WAT     H127960   0.990   2.995   4.209
 9186WAT     H227961   1.042   2.969   4.349
 9187WAT      O27962   0.681   4.375   3.109
 9187WAT     H127963   0.726   4.458   3.094
 9187WAT     H227964   0.662   4.342   3.021
 9188WAT      O27965   5.393   3.865   5.496
 9188WAT     H127966   5.373   3.818   5.577
 9188WAT     H227967   5.324   3.931   5.489
 9189WAT      O27968   2.966   5.283   0.802
 9189WAT     H127969   3.006   5.368   0.819
 9189WAT     H227970   3.011   5.251   0.724
 9190WAT      O27971   3.470   6.579   2.902
 9190WAT     H127972   3.465   6.532   2.986
 9190WAT     H227973   3.423   6.523   2.840
 9191WAT      O27974   7.162   5.671   3.037
 9191WAT     H127975   7.218   5.671   3.115
 9191WAT     H227976   7.215   5.712   2.969
 9192WAT      O27977   1.676   6.753   3.455
 9192WAT     H127978   1.588   6.762   3.491
 9192WAT     H227979   1.674   6.671   3.407
 9193WAT      O27980   6.942   2.076   3.288
 9193WAT     H127981   6.892   2.133   3.346
 9193WAT     H227982   6.910   2.097   3.200
 9194WAT      O27983   4.765   3.968   4.260
 9194WAT     H127984   4.823   3.895   4.240
 9194WAT     H227985   4.742   4.005   4.175
 9195WAT      O27986   4.559   5.450   5.446
 9195WAT     H127987   4.524   5.389   5.381
 9195WAT     H227988   4.526   5.417   5.530
 9196WAT      O27989   6.070   2.537   1.885
 9196WAT     H127990   6.149   2.494   1.853
 9196WAT     H227991   6.054   2.608   1.821
 9197WAT      O27992   5.531   6.067   2.843
 9197WAT     H127993   5.593   6.112   2.785
 9197WAT     H227994   5.535   6.116   2.925
 9198WAT      O27995   6.114   5.872   3.494
 9198WAT     H127996   6.138   5.865   3.402
 9198WAT     H227997   6.089   5.784   3.520
 9199WAT      O27998   3.149   3.876   4.411
 9199WAT     H127999   3.242   3.881   4.387
 9199WAT     H228000   3.107   3.839   4.332
 9200WAT      O28001   0.331   5.066   1.136
 9200WAT     H128002   0.403   5.003   1.132
 9200WAT     H228003   0.321   5.096   1.046
 9201WAT      O28004   0.698   5.687   3.798
 9201WAT     H128005   0.773   5.674   3.741
 9201WAT     H228006   0.621   5.676   3.741
 9202WAT      O28007   3.479   6.242   6.213
 9202WAT     H128008   3.455   6.167   6.158
 9202WAT     H228009   3.570   6.260   6.191
 9203WAT      O28010   6.307   1.652   3.976
 9203WAT     H128011   6.309   1.624   3.885
 9203WAT     H228012   6.305   1.570   4.026
 9204WAT      O28013   3.582   2.117   4.076
 9204WAT     H128014   3.626   2.034   4.098
 9204WAT     H228015   3.529   2.096   3.999
 9205WAT      O28016   2.304   0.663   1.469
 9205WAT     H128017   2.326   0.756   1.462
 9205WAT     H228018   2.305   0.631   1.378
 9206WAT      O28019   4.765   1.347   3.938
 9206WAT     H128020   4.785   1.422   3.881
 9206WAT     H228021   4.846   1.331   3.985
 9207WAT      O28022   6.558   2.304   6.027
 9207WAT     H128023   6.606   2.224   6.008
 9207WAT     H228024   6.571   2.318   6.121
 9208WAT      O28025   0.114   5.444   0.766
 9208WAT     H128026   0.056   5.387   0.715
 9208WAT     H228027   0.201   5.430   0.728
 9209WAT      O28028   1.883   2.697   4.592
 9209WAT     H128029   1.950   2.762   4.575
 9209WAT     H228030   1.891   2.635   4.519
 9210WAT      O28031   6.848   0.315   1.068
 9210WAT     H128032   6.756   0.332   1.048
 9210WAT     H228033   6.896   0.360   0.999
 9211WAT      O28034   6.983   6.827   0.308
 9211WAT     H128035   6.942   6.772   0.241
 9211WAT     H228036   6.948   6.793   0.391
 9212WAT      O28037   2.455   0.047   4.633
 9212WAT     H128038   2.462  -0.014   4.559
 9212WAT     H228039   2.391   0.112   4.603
 9213WAT      O28040   0.969   2.722   4.264
 9213WAT     H128041   1.016   2.767   4.334
 9213WAT     H228042   1.037   2.693   4.204
 9214WAT      O28043   7.011   0.865   5.861
 9214WAT     H128044   6.917   0.868   5.843
 9214WAT     H228045   7.046   0.807   5.793
 9215WAT      O28046   7.178   5.939   2.489
 9215WAT     H128047   7.205   5.862   2.439
 9215WAT     H228048   7.245   6.005   2.468
 9216WAT      O28049   5.460   2.148   0.928
 9216WAT     H128050   5.370   2.138   0.899
 9216WAT     H228051   5.506   2.072   0.892
 9217WAT      O28052   2.359   0.304   6.209
 9217WAT     H128053   2.333   0.335   6.122
 9217WAT     H228054   2.311   0.360   6.270
 9218WAT      O28055   2.218   5.526   0.239
 9218WAT     H128056   2.251   5.578   0.166
 9218WAT     H228057   2.127   5.555   0.250
 9219WAT      O28058   6.731   6.974   6.210
 9219WAT     H128059   6.762   6.947   6.124
 9219WAT     H228060   6.636   6.965   6.205
 9220WAT      O28061   2.363   0.400   3.984
 9220WAT     H128062   2.383   0.351   3.905
 9220WAT     H228063   2.295   0.462   3.958
 9221WAT      O28064   2.793   1.287   3.669
 9221WAT     H128065   2.811   1.292   3.763
 9221WAT     H228066   2.717   1.230   3.662
 9222WAT      O28067   1.580   2.508   0.170
 9222WAT     H128068   1.522   2.547   0.104
 9222WAT     H228069   1.662   2.556   0.162
 9223WAT      O28070   6.377   6.291   0.343
 9223WAT     H128071   6.361   6.223   0.409
 9223WAT     H228072   6.298   6.345   0.344
 9224WAT      O28073   1.096   0.995   5.831
 9224WAT     H128074   1.015   0.981   5.783
 9224WAT     H228075   1.109   1.090   5.829
 9225WAT      O28076   6.111   1.740   3.601
 9225WAT     H128077   6.194   1.747   3.553
 9225WAT     H228078   6.137   1.729   3.692
 9226WAT      O28079   0.068   4.222   3.505
 9226WAT     H128080   0.129   4.226   3.432
 9226WAT     H228081   0.017   4.142   3.490
 9227WAT      O28082   3.654   4.174   2.911
 9227WAT     H128083   3.617   4.256   2.942
 9227WAT     H228084   3.581   4.113   2.910
 9228WAT      O28085   0.551   6.851   0.648
 9228WAT     H128086   0.517   6.919   0.589
 9228WAT     H228087   0.480   6.787   0.654
 9229WAT      O28088   4.118   0.401   5.337
 9229WAT     H128089   4.162   0.400   5.252
 9229WAT     H228090   4.057   0.475   5.333
 9230WAT      O28091   1.876   3.638   0.858
 9230WAT     H128092   1.893   3.732   0.864
 9230WAT     H228093   1.856   3.611   0.948
 9231WAT      O28094   4.810   3.770   3.019
 9231WAT     H128095   4.724   3.741   2.987
 9231WAT     H228096   4.859   3.793   2.940
 9232WAT      O28097   4.034   4.891   2.411
 9232WAT     H128098   4.005   4.980   2.431
 9232WAT     H228099   4.080   4.899   2.327
 9233WAT      O28100   2.952   4.881   5.548
 9233WAT     H128101   3.029   4.906   5.497
 9233WAT     H228102   2.926   4.961   5.594
 9234WAT      O28103   0.282   1.899   2.051
 9234WAT     H128104   0.344   1.972   2.055
 9234WAT     H228105   0.256   1.885   2.142
 9235WAT      O28106   2.920   2.412   0.044
 9235WAT     H128107   3.008   2.403   0.007
 9235WAT     H228108   2.893   2.323   0.065
 9236WAT      O28109   3.708   6.296   4.786
 9236WAT     H128110   3.775   6.291   4.718
 9236WAT     H228111   3.660   6.377   4.765
 9237WAT      O28112   2.967   6.505   5.760
 9237WAT     H128113   3.022   6.491   5.837
 9237WAT     H228114   3.028   6.502   5.686
 9238WAT      O28115   1.426   4.997   5.741
 9238WAT     H128116   1.353   5.021   5.798
 9238WAT     H228117   1.385   4.962   5.662
 9239WAT      O28118   4.518   1.522   1.746
 9239WAT     H128119   4.459   1.587   1.710
 9239WAT     H228120   4.481   1.438   1.717
 9240WAT      O28121   2.050   7.083   5.346
 9240WAT     H128122   2.084   6.994   5.342
 9240WAT     H228123   1.964   7.078   5.305
 9241WAT      O28124   6.892   6.843   4.654
 9241WAT     H128125   6.964   6.833   4.592
 9241WAT     H228126   6.897   6.766   4.710
 9242WAT      O28127   2.659   5.399   3.909
 9242WAT     H128128   2.598   5.456   3.862
 9242WAT     H228129   2.642   5.311   3.873
 9243WAT      O28130   5.550   1.116   4.800
 9243WAT     H128131   5.632   1.124   4.753
 9243WAT     H228132   5.522   1.026   4.787
 9244WAT      O28133   6.609   5.632   2.327
 9244WAT     H128134   6.533   5.610   2.274
 9244WAT     H228135   6.586   5.716   2.368
 9245WAT      O28136   1.340   0.127   1.973
 9245WAT     H128137   1.354   0.115   1.879
 9245WAT     H228138   1.275   0.059   1.996
 9246WAT      O28139   4.468   1.709   4.638
 9246WAT     H128140   4.556   1.710   4.674
 9246WAT     H228141   4.479   1.673   4.549
 9247WAT      O28142   5.257   1.711   4.527
 9247WAT     H128143   5.256   1.805   4.507
 9247WAT     H228144   5.205   1.671   4.458
 9248WAT      O28145   2.853   2.747   1.685
 9248WAT     H128146   2.781   2.805   1.658
 9248WAT     H228147   2.924   2.767   1.624
 9249WAT      O28148   0.817   6.808   0.501
 9249WAT     H128149   0.778   6.895   0.506
 9249WAT     H228150   0.793   6.775   0.415
 9250WAT      O28151   0.033   3.177   2.625
 9250WAT     H128152   0.001   3.259   2.586
 9250WAT     H228153   0.125   3.196   2.647
 9251WAT      O28154   3.379   1.272   4.277
 9251WAT     H128155   3.418   1.185   4.283
 9251WAT     H228156   3.291   1.262   4.313
 9252WAT      O28157   1.860   2.096   6.194
 9252WAT     H128158   1.814   2.013   6.186
 9252WAT     H228159   1.808   2.146   6.257
 9253WAT      O28160   2.750   0.433   2.149
 9253WAT     H128161   2.726   0.525   2.135
 9253WAT     H228162   2.840   0.427   2.117
 9254WAT      O28163   4.646   1.541   6.010
 9254WAT     H128164   4.643   1.536   6.105
 9254WAT     H228165   4.736   1.567   5.990
 9255WAT      O28166   0.866   2.018   2.931
 9255WAT     H128167   0.775   2.002   2.906
 9255WAT     H228168   0.888   2.102   2.892
 9256WAT      O28169   1.740   3.341   5.952
 9256WAT     H128170   1.670   3.300   5.902
 9256WAT     H228171   1.807   3.362   5.887
 9257WAT      O28172   1.502   4.181   5.779
 9257WAT     H128173   1.528   4.092   5.758
 9257WAT     H228174   1.474   4.177   5.871
 9258WAT      O28175   6.611   1.053   2.005
 9258WAT     H128176   6.626   1.048   2.100
 9258WAT     H228177   6.521   1.085   1.998
 9259WAT      O28178   6.971   3.844   3.041
 9259WAT     H128179   6.906   3.914   3.052
 9259WAT     H228180   7.046   3.874   3.092
 9260WAT      O28181   7.048   3.757   0.484
 9260WAT     H128182   6.974   3.805   0.448
 9260WAT     H228183   7.117   3.822   0.492
 9261WAT      O28184   7.288   0.895   2.955
 9261WAT     H128185   7.289   0.817   2.899
 9261WAT     H228186   7.377   0.929   2.949
 9262WAT      O28187   7.362   0.806   3.992
 9262WAT     H128188   7.456   0.803   3.975
 9262WAT     H228189   7.323   0.825   3.907
 9263WAT      O28190   3.988   5.099   2.864
 9263WAT     H128191   3.923   5.032   2.889
 9263WAT     H228192   4.026   5.066   2.783
 9264WAT      O28193   4.824   4.108   2.507
 9264WAT     H128194   4.796   4.119   2.416
 9264WAT     H228195   4.820   4.197   2.544
 9265WAT      O28196   7.287   2.134   2.261
 9265WAT     H128197   7.360   2.141   2.323
 9265WAT     H228198   7.211   2.166   2.310
 9266WAT      O28199   2.634   2.186   3.742
 9266WAT     H128200   2.706   2.185   3.679
 9266WAT     H228201   2.627   2.095   3.772
 9267WAT      O28202   6.513   1.467   4.868
 9267WAT     H128203   6.531   1.557   4.895
 9267WAT     H228204   6.446   1.437   4.930
 9268WAT      O28205   3.125   5.655   5.200
 9268WAT     H128206   3.199   5.620   5.150
 9268WAT     H228207   3.132   5.750   5.191
 9269WAT      O28208   6.631   6.978   2.740
 9269WAT     H128209   6.701   6.993   2.677
 9269WAT     H228210   6.661   7.021   2.820
 9270WAT      O28211   7.283   1.776   1.660
 9270WAT     H128212   7.317   1.688   1.672
 9270WAT     H228213   7.361   1.832   1.651
 9271WAT      O28214   5.540   5.464   6.002
 9271WAT     H128215   5.620   5.505   5.966
 9271WAT     H228216   5.486   5.539   6.028
 9272WAT      O28217   5.785   0.986   3.866
 9272WAT     H128218   5.828   1.070   3.847
 9272WAT     H228219   5.695   0.998   3.837
 9273WAT      O28220   0.572   0.296   1.641
 9273WAT     H128221   0.620   0.352   1.702
 9273WAT     H228222   0.622   0.302   1.560
 9274WAT      O28223   5.681   5.585   1.265
 9274WAT     H128224   5.743   5.654   1.289
 9274WAT     H228225   5.675   5.591   1.170
 9275WAT      O28226   5.812   5.583   5.629
 9275WAT     H128227   5.905   5.582   5.608
 9275WAT     H228228   5.783   5.670   5.601
 9276WAT      O28229   7.102   2.166   2.492
 9276WAT     H128230   7.064   2.251   2.512
 9276WAT     H228231   7.043   2.103   2.532
 9277WAT      O28232   2.381   0.509   2.329
 9277WAT     H128233   2.293   0.502   2.366
 9277WAT     H228234   2.368   0.552   2.245
 9278WAT      O28235   1.390   4.255   0.440
 9278WAT     H128236   1.458   4.318   0.416
 9278WAT     H228237   1.308   4.297   0.412
 9279WAT      O28238   3.618   1.083   2.182
 9279WAT     H128239   3.618   1.096   2.087
 9279WAT     H228240   3.615   1.171   2.218
 9280WAT      O28241   4.396   0.955   3.811
 9280WAT     H128242   4.464   0.890   3.828
 9280WAT     H228243   4.314   0.905   3.810
 9281WAT      O28244   2.397   2.295   3.668
 9281WAT     H128245   2.373   2.248   3.588
 9281WAT     H228246   2.468   2.243   3.705
 9282WAT      O28247   7.144   5.469   2.134
 9282WAT     H128248   7.152   5.385   2.179
 9282WAT     H228249   7.233   5.500   2.122
 9283WAT      O28250   4.994   5.654   0.643
 9283WAT     H128251   4.949   5.719   0.698
 9283WAT     H228252   5.055   5.705   0.590
 9284WAT      O28253   3.754   2.597   4.042
 9284WAT     H128254   3.751   2.503   4.023
 9284WAT     H228255   3.841   2.624   4.015
 9285WAT      O28256   6.624   2.306   0.133
 9285WAT     H128257   6.667   2.321   0.048
 9285WAT     H228258   6.621   2.211   0.142
 9286WAT      O28259   6.199   5.884   6.054
 9286WAT     H128260   6.241   5.953   6.106
 9286WAT     H228261   6.272   5.842   6.007
 9287WAT      O28262   2.380   5.942   4.996
 9287WAT     H128263   2.462   5.955   5.045
 9287WAT     H228264   2.375   6.019   4.939
 9288WAT      O28265   7.526   0.884   3.562
 9288WAT     H128266   7.585   0.958   3.573
 9288WAT     H228267   7.566   0.813   3.612
 9289WAT      O28268   3.145   3.755   5.522
 9289WAT     H128269   3.077   3.719   5.579
 9289WAT     H228270   3.102   3.767   5.438
 9290WAT      O28271   6.067   4.516   4.229
 9290WAT     H128272   6.161   4.526   4.213
 9290WAT     H228273   6.040   4.601   4.266
 9291WAT      O28274   4.521   2.982   2.756
 9291WAT     H128275   4.595   3.020   2.805
 9291WAT     H228276   4.496   3.051   2.695
 9292WAT      O28277   5.448   4.474   0.163
 9292WAT     H128278   5.367   4.434   0.194
 9292WAT     H228279   5.517   4.432   0.215
 9293WAT      O28280   4.462   1.644   0.379
 9293WAT     H128281   4.440   1.737   0.374
 9293WAT     H228282   4.487   1.620   0.289
 9294WAT      O28283   7.253   0.184   4.349
 9294WAT     H128284   7.203   0.114   4.389
 9294WAT     H228285   7.187   0.246   4.318
 9295WAT      O28286   1.847   6.927   3.831
 9295WAT     H128287   1.868   6.894   3.918
 9295WAT     H228288   1.894   6.867   3.772
 9296WAT      O28289   2.320   1.819   5.146
 9296WAT     H128290   2.391   1.817   5.210
 9296WAT     H228291   2.352   1.875   5.076
 9297WAT      O28292   1.030   6.690   5.576
 9297WAT     H128293   1.122   6.670   5.592
 9297WAT     H228294   1.027   6.713   5.483
 9298WAT      O28295   6.563   5.763   1.381
 9298WAT     H128296   6.490   5.806   1.336
 9298WAT     H228297   6.613   5.721   1.311
 9299WAT      O28298   4.830   2.060   1.858
 9299WAT     H128299   4.889   2.067   1.783
 9299WAT     H228300   4.746   2.093   1.826
 9300WAT      O28301   2.405   7.055   4.462
 9300WAT     H128302   2.319   7.070   4.502
 9300WAT     H228303   2.386   7.033   4.371
 9301WAT      O28304   5.606   0.643   5.707
 9301WAT     H128305   5.664   0.568   5.697
 9301WAT     H228306   5.624   0.676   5.795
 9302WAT      O28307   6.031   7.174   2.813
 9302WAT     H128308   6.060   7.146   2.726
 9302WAT     H228309   6.099   7.235   2.842
 9303WAT      O28310   3.474   0.227   0.940
 9303WAT     H128311   3.404   0.228   0.875
 9303WAT     H228312   3.554   0.213   0.890
 9304WAT      O28313   0.071   6.865   0.708
 9304WAT     H128314   0.063   6.825   0.621
 9304WAT     H228315   0.093   6.792   0.766
 9305WAT      O28316   7.397   4.900   0.545
 9305WAT     H128317   7.309   4.879   0.576
 9305WAT     H228318   7.385   4.981   0.495
 9306WAT      O28319   0.110   1.293   1.720
 9306WAT     H128320   0.197   1.333   1.729
 9306WAT     H228321   0.082   1.278   1.810
 9307WAT      O28322   6.918   1.797   2.730
 9307WAT     H128323   6.830   1.824   2.706
 9307WAT     H228324   6.923   1.705   2.703
 9308WAT      O28325   6.526   2.069   0.657
 9308WAT     H128326   6.560   2.151   0.620
 9308WAT     H228327   6.594   2.039   0.717
 9309WAT      O28328   1.484   1.766   1.737
 9309WAT     H128329   1.391   1.766   1.762
 9309WAT     H228330   1.498   1.678   1.700
 9310WAT      O28331   2.581   4.322   4.968
 9310WAT     H128332   2.609   4.231   4.979
 9310WAT     H228333   2.486   4.316   4.957
 9311WAT      O28334   0.890   4.906   1.671
 9311WAT     H128335   0.980   4.929   1.647
 9311WAT     H228336   0.873   4.824   1.625
 9312WAT      O28337   4.855   3.285   0.354
 9312WAT     H128338   4.893   3.330   0.278
 9312WAT     H228339   4.820   3.203   0.318
 9313WAT      O28340   5.409   1.558   1.922
 9313WAT     H128341   5.393   1.598   2.007
 9313WAT     H228342   5.339   1.591   1.866
 9314WAT      O28343   4.583   3.206   0.486
 9314WAT     H128344   4.498   3.166   0.471
 9314WAT     H228345   4.644   3.132   0.489
 9315WAT      O28346   0.974   6.154   0.832
 9315WAT     H128347   0.988   6.231   0.776
 9315WAT     H228348   1.029   6.086   0.793
 9316WAT      O28349   5.463   2.973   0.096
 9316WAT     H128350   5.393   2.983   0.160
 9316WAT     H228351   5.419   2.979   0.011
 9317WAT      O28352   6.896   4.908   0.216
 9317WAT     H128353   6.820   4.931   0.269
 9317WAT     H228354   6.968   4.959   0.253
 9318WAT      O28355   3.344   1.325   0.591
 9318WAT     H128356   3.331   1.237   0.625
 9318WAT     H228357   3.432   1.324   0.554
 9319WAT      O28358   1.019   1.597   5.126
 9319WAT     H128359   0.994   1.509   5.154
 9319WAT     H228360   0.993   1.654   5.198
 9320WAT      O28361   6.199   6.641   1.372
 9320WAT     H128362   6.274   6.640   1.312
 9320WAT     H228363   6.153   6.560   1.354
 9321WAT      O28364   1.239   5.194   1.299
 9321WAT     H128365   1.153   5.214   1.262
 9321WAT     H228366   1.301   5.242   1.244
 9322WAT      O28367   5.766   6.643   1.035
 9322WAT     H128368   5.720   6.567   1.071
 9322WAT     H228369   5.728   6.718   1.080
 9323WAT      O28370   6.006   2.691   0.252
 9323WAT     H128371   6.009   2.780   0.286
 9323WAT     H228372   6.033   2.699   0.161
 9324WAT      O28373   6.257   3.136   2.185
 9324WAT     H128374   6.259   3.071   2.115
 9324WAT     H228375   6.181   3.111   2.239
 9325WAT      O28376   6.109   4.761   3.469
 9325WAT     H128377   6.151   4.724   3.391
 9325WAT     H228378   6.144   4.850   3.474
 9326WAT      O28379   1.730   1.907   3.187
 9326WAT     H128380   1.712   1.837   3.251
 9326WAT     H228381   1.654   1.966   3.194
 9327WAT      O28382   5.880   1.057   2.050
 9327WAT     H128383   5.943   1.028   1.985
 9327WAT     H228384   5.805   1.088   1.999
 9328WAT      O28385   0.426   4.168   3.139
 9328WAT     H128386   0.467   4.120   3.211
 9328WAT     H228387   0.485   4.156   3.065
 9329WAT      O28388   0.647   1.289   0.043
 9329WAT     H128389   0.726   1.238   0.062
 9329WAT     H228390   0.579   1.224   0.026
 9330WAT      O28391   3.455   4.392   2.077
 9330WAT     H128392   3.422   4.406   1.989
 9330WAT     H228393   3.463   4.481   2.114
 9331WAT      O28394   6.268   6.615   1.069
 9331WAT     H128395   6.184   6.594   1.029
 9331WAT     H228396   6.260   6.706   1.097
 9332WAT      O28397   3.926   0.469   0.541
 9332WAT     H128398   3.863   0.416   0.492
 9332WAT     H228399   3.900   0.459   0.633
 9333WAT      O28400   4.355   7.097   3.604
 9333WAT     H128401   4.422   7.081   3.537
 9333WAT     H228402   4.363   7.190   3.624
 9334WAT      O28403   6.093   0.353   5.763
 9334WAT     H128404   6.142   0.418   5.713
 9334WAT     H228405   6.154   0.323   5.831
 9335WAT      O28406   1.360   2.299   6.085
 9335WAT     H128407   1.284   2.350   6.059
 9335WAT     H228408   1.362   2.225   6.024
 9336WAT      O28409   7.160   4.053   4.547
 9336WAT     H128410   7.082   4.010   4.511
 9336WAT     H228411   7.131   4.089   4.631
 9337WAT      O28412   0.096   3.302   2.170
 9337WAT     H128413   0.158   3.324   2.101
 9337WAT     H228414   0.117   3.212   2.194
 9338WAT      O28415   4.716   0.445   2.315
 9338WAT     H128416   4.625   0.467   2.334
 9338WAT     H228417   4.713   0.354   2.285
 9339WAT      O28418   4.021   3.802   1.288
 9339WAT     H128419   4.073   3.881   1.301
 9339WAT     H228420   3.985   3.812   1.200
 9340WAT      O28421   6.996   6.891   1.269
 9340WAT     H128422   6.951   6.930   1.343
 9340WAT     H228423   6.957   6.933   1.192
 9341WAT      O28424   6.471   0.632   5.461
 9341WAT     H128425   6.389   0.633   5.510
 9341WAT     H228426   6.450   0.586   5.380
 9342WAT      O28427   7.518   1.121   3.967
 9342WAT     H128428   7.548   1.197   3.917
 9342WAT     H228429   7.425   1.114   3.948
 9343WAT      O28430   2.499   4.224   2.172
 9343WAT     H128431   2.408   4.243   2.196
 9343WAT     H228432   2.517   4.281   2.098
 9344WAT      O28433   1.615   2.322   3.087
 9344WAT     H128434   1.635   2.322   2.993
 9344WAT     H228435   1.529   2.363   3.094
 9345WAT      O28436   7.071   6.315   5.976
 9345WAT     H128437   7.052   6.395   6.026
 9345WAT     H228438   6.985   6.277   5.959
 9346WAT      O28439   2.126   6.499   6.152
 9346WAT     H128440   2.171   6.567   6.102
 9346WAT     H228441   2.034   6.507   6.126
 9347WAT      O28442   3.566   6.152   4.957
 9347WAT     H128443   3.581   6.074   4.903
 9347WAT     H228444   3.625   6.218   4.921
 9348WAT      O28445   5.156   6.218   2.636
 9348WAT     H128446   5.063   6.231   2.654
 9348WAT     H228447   5.160   6.197   2.542
 9349WAT      O28448   5.379   1.940   4.962
 9349WAT     H128449   5.437   1.909   4.893
 9349WAT     H228450   5.305   1.980   4.915
 9350WAT      O28451   6.522   1.459   0.724
 9350WAT     H128452   6.595   1.397   0.719
 9350WAT     H228453   6.480   1.453   0.638
 9351WAT      O28454   4.524   1.863   0.997
 9351WAT     H128455   4.443   1.838   0.953
 9351WAT     H228456   4.591   1.809   0.955
 9352WAT      O28457   2.886   2.374   2.548
 9352WAT     H128458   2.919   2.284   2.546
 9352WAT     H228459   2.815   2.375   2.484
 9353WAT      O28460   4.161   4.893   5.866
 9353WAT     H128461   4.225   4.822   5.877
 9353WAT     H228462   4.118   4.899   5.952
 9354WAT      O28463   5.543   6.248   5.275
 9354WAT     H128464   5.559   6.269   5.183
 9354WAT     H228465   5.562   6.155   5.281
 9355WAT      O28466   3.616   4.287   5.065
 9355WAT     H128467   3.589   4.279   4.973
 9355WAT     H228468   3.620   4.197   5.097
 9356WAT      O28469   5.042   5.982   3.756
 9356WAT     H128470   5.035   6.034   3.676
 9356WAT     H228471   5.033   5.891   3.726
 9357WAT      O28472   0.617   3.355   1.383
 9357WAT     H128473   0.537   3.405   1.369
 9357WAT     H228474   0.677   3.386   1.316
 9358WAT      O28475   6.877   5.456   4.101
 9358WAT     H128476   6.911   5.397   4.034
 9358WAT     H228477   6.855   5.536   4.054
 9359WAT      O28478   1.561   5.716   3.399
 9359WAT     H128479   1.586   5.798   3.358
 9359WAT     H228480   1.601   5.648   3.344
 9360WAT      O28481   2.466   4.625   1.185
 9360WAT     H128482   2.418   4.578   1.253
 9360WAT     H228483   2.398   4.661   1.128
 9361WAT      O28484   1.809   2.758   4.930
 9361WAT     H128485   1.838   2.690   4.991
 9361WAT     H228486   1.886   2.813   4.917
 9362WAT      O28487   1.896   1.828   4.620
 9362WAT     H128488   1.835   1.779   4.565
 9362WAT     H228489   1.982   1.811   4.581
 9363WAT      O28490   0.021   3.282   4.537
 9363WAT     H128491  -0.014   3.278   4.626
 9363WAT     H228492   0.099   3.337   4.545
 9364WAT      O28493   1.836   3.869   1.699
 9364WAT     H128494   1.912   3.889   1.645
 9364WAT     H228495   1.856   3.906   1.785
 9365WAT      O28496   0.425   1.021   5.045
 9365WAT     H128497   0.456   1.008   4.955
 9365WAT     H228498   0.330   1.007   5.040
 9366WAT      O28499   0.232   0.280   5.837
 9366WAT     H128500   0.234   0.335   5.758
 9366WAT     H228501   0.258   0.193   5.806
 9367WAT      O28502   1.725   4.300   2.054
 9367WAT     H128503   1.707   4.392   2.073
 9367WAT     H228504   1.801   4.303   1.994
 9368WAT      O28505   5.955   2.986   1.367
 9368WAT     H128506   5.920   3.075   1.363
 9368WAT     H228507   5.966   2.961   1.276
 9369WAT      O28508   0.262   3.431   1.940
 9369WAT     H128509   0.190   3.410   1.881
 9369WAT     H228510   0.341   3.412   1.888
 9370WAT      O28511   3.171   5.816   1.605
 9370WAT     H128512   3.215   5.871   1.541
 9370WAT     H228513   3.082   5.805   1.570
 9371WAT      O28514   5.845   4.537   0.733
 9371WAT     H128515   5.901   4.588   0.675
 9371WAT     H228516   5.906   4.490   0.790
 9372WAT      O28517   6.359   5.207   5.506
 9372WAT     H128518   6.447   5.201   5.542
 9372WAT     H228519   6.339   5.118   5.475
 9373WAT      O28520   0.906   5.595   1.167
 9373WAT     H128521   0.845   5.524   1.146
 9373WAT     H228522   0.876   5.627   1.252
 9374WAT      O28523   0.389   3.668   2.514
 9374WAT     H128524   0.435   3.584   2.514
 9374WAT     H228525   0.430   3.718   2.444
 9375WAT      O28526   6.303   6.205   3.514
 9375WAT     H128527   6.235   6.247   3.462
 9375WAT     H228528   6.302   6.114   3.486
 9376WAT      O28529   1.251   4.995   3.293
 9376WAT     H128530   1.291   4.909   3.276
 9376WAT     H228531   1.310   5.057   3.249
 9377WAT      O28532   4.364   4.719   3.434
 9377WAT     H128533   4.401   4.697   3.520
 9377WAT     H228534   4.339   4.811   3.442
 9378WAT      O28535   6.705   5.451   2.715
 9378WAT     H128536   6.707   5.453   2.811
 9378WAT     H228537   6.741   5.535   2.688
 9379WAT      O28538   4.293   0.797   2.238
 9379WAT     H128539   4.351   0.848   2.182
 9379WAT     H228540   4.350   0.765   2.308
 9380WAT      O28541   3.736   7.088   0.607
 9380WAT     H128542   3.738   7.025   0.535
 9380WAT     H228543   3.751   7.035   0.685
 9381WAT      O28544   3.117   5.915   5.879
 9381WAT     H128545   3.127   6.009   5.865
 9381WAT     H228546   3.206   5.880   5.875
 9382WAT      O28547   4.656   6.242   1.022
 9382WAT     H128548   4.692   6.157   0.999
 9382WAT     H228549   4.690   6.261   1.109
 9383WAT      O28550   4.311   4.072   1.519
 9383WAT     H128551   4.282   4.145   1.572
 9383WAT     H228552   4.361   4.016   1.579
 9384WAT      O28553   6.449   7.076   4.972
 9384WAT     H128554   6.413   7.087   5.060
 9384WAT     H228555   6.396   7.006   4.933
 9385WAT      O28556   0.620   3.618   5.873
 9385WAT     H128557   0.691   3.678   5.852
 9385WAT     H228558   0.542   3.657   5.834
 9386WAT      O28559   3.945   0.245   4.048
 9386WAT     H128560   3.927   0.184   3.977
 9386WAT     H228561   3.981   0.322   4.005
 9387WAT      O28562   1.650   6.528   4.418
 9387WAT     H128563   1.620   6.614   4.447
 9387WAT     H228564   1.661   6.538   4.323
 9388WAT      O28565   6.063   1.855   4.096
 9388WAT     H128566   6.060   1.781   4.157
 9388WAT     H228567   6.155   1.861   4.071
 9389WAT      O28568   7.103   3.000   1.649
 9389WAT     H128569   7.133   3.073   1.703
 9389WAT     H228570   7.168   2.931   1.663
 9390WAT      O28571   7.031   1.416   0.290
 9390WAT     H128572   7.120   1.394   0.261
 9390WAT     H228573   6.995   1.469   0.219
 9391WAT      O28574   2.021   0.753   4.211
 9391WAT     H128575   1.988   0.664   4.200
 9391WAT     H228576   2.068   0.771   4.130
 9392WAT      O28577   6.301   2.051   0.011
 9392WAT     H128578   6.208   2.074   0.015
 9392WAT     H228579   6.301   1.955   0.012
 9393WAT      O28580   2.531   4.645   1.488
 9393WAT     H128581   2.543   4.730   1.530
 9393WAT     H228582   2.436   4.636   1.478
 9394WAT      O28583   4.532   1.148   2.450
 9394WAT     H128584   4.497   1.202   2.378
 9394WAT     H228585   4.466   1.082   2.465
 9395WAT      O28586   3.348   3.002   5.573
 9395WAT     H128587   3.347   2.923   5.627
 9395WAT     H228588   3.259   3.035   5.577
 9396WAT      O28589   1.749   3.066   5.538
 9396WAT     H128590   1.694   3.004   5.491
 9396WAT     H228591   1.801   3.011   5.598
 9397WAT      O28592   6.845   2.338   0.307
 9397WAT     H128593   6.808   2.377   0.386
 9397WAT     H228594   6.769   2.311   0.255
 9398WAT      O28595   6.345   1.662   1.717
 9398WAT     H128596   6.325   1.648   1.625
 9398WAT     H228597   6.392   1.583   1.744
 9399WAT      O28598   3.970   6.197   0.546
 9399WAT     H128599   3.928   6.267   0.495
 9399WAT     H228600   3.965   6.121   0.489
 9400WAT      O28601   1.826   1.852   6.080
 9400WAT     H128602   1.731   1.839   6.084
 9400WAT     H228603   1.862   1.777   6.127
 9401WAT      O28604   7.447   7.119   5.334
 9401WAT     H128605   7.355   7.119   5.360
 9401WAT     H228606   7.451   7.053   5.264
 9402WAT      O28607   4.841   1.313   3.053
 9402WAT     H128608   4.769   1.358   3.097
 9402WAT     H228609   4.847   1.355   2.967
 9403WAT      O28610   0.373   3.305   0.880
 9403WAT     H128611   0.423   3.311   0.799
 9403WAT     H228612   0.348   3.396   0.900
 9404WAT      O28613   6.515   0.730   3.129
 9404WAT     H128614   6.462   0.809   3.132
 9404WAT     H228615   6.469   0.671   3.069
 9405WAT      O28616   6.461   6.326   5.019
 9405WAT     H128617   6.425   6.401   4.973
 9405WAT     H228618   6.398   6.256   5.004
 9406WAT      O28619   0.294   2.386   1.211
 9406WAT     H128620   0.206   2.422   1.203
 9406WAT     H228621   0.294   2.311   1.152
 9407WAT      O28622   1.437   1.498   3.906
 9407WAT     H128623   1.450   1.466   3.817
 9407WAT     H228624   1.503   1.453   3.959
 9408WAT      O28625   5.596   4.995   3.371
 9408WAT     H128626   5.515   5.018   3.325
 9408WAT     H228627   5.571   4.995   3.464
 9409WAT      O28628   0.824   0.070   5.355
 9409WAT     H128629   0.883   0.145   5.344
 9409WAT     H228630   0.760   0.099   5.420
 9410WAT      O28631   6.444   4.371   3.177
 9410WAT     H128632   6.460   4.427   3.102
 9410WAT     H228633   6.423   4.286   3.140
 9411WAT      O28634   0.686   6.303   6.080
 9411WAT     H128635   0.639   6.376   6.041
 9411WAT     H228636   0.627   6.228   6.069
 9412WAT      O28637   4.449   0.479   3.437
 9412WAT     H128638   4.537   0.464   3.473
 9412WAT     H228639   4.398   0.403   3.466
 9413WAT      O28640   2.037   2.115   0.661
 9413WAT     H128641   1.983   2.194   0.663
 9413WAT     H228642   2.126   2.147   0.647
 9414WAT      O28643   3.604   2.689   0.422
 9414WAT     H128644   3.649   2.771   0.401
 9414WAT     H228645   3.521   2.695   0.375
 9415WAT      O28646   1.710   4.102   3.730
 9415WAT     H128647   1.694   4.180   3.678
 9415WAT     H228648   1.706   4.030   3.668
 9416WAT      O28649   6.025   6.954   2.234
 9416WAT     H128650   6.046   6.910   2.152
 9416WAT     H228651   5.948   7.007   2.214
 9417WAT      O28652   6.242   4.062   3.498
 9417WAT     H128653   6.158   4.046   3.456
 9417WAT     H228654   6.239   4.010   3.578
 9418WAT      O28655   5.469   2.873   0.393
 9418WAT     H128656   5.482   2.779   0.400
 9418WAT     H228657   5.546   2.905   0.344
 9419WAT      O28658   0.745   4.333   0.688
 9419WAT     H128659   0.684   4.284   0.632
 9419WAT     H228660   0.825   4.338   0.636
 9420WAT      O28661   4.324   4.866   3.762
 9420WAT     H128662   4.307   4.853   3.855
 9420WAT     H228663   4.402   4.815   3.744
 9421WAT      O28664   4.310   6.670   5.913
 9421WAT     H128665   4.354   6.644   5.994
 9421WAT     H228666   4.381   6.699   5.855
 9422WAT      O28667   2.536   4.259   4.407
 9422WAT     H128668   2.455   4.302   4.381
 9422WAT     H228669   2.530   4.171   4.368
 9423WAT      O28670   3.052   0.652   1.562
 9423WAT     H128671   2.972   0.704   1.571
 9423WAT     H228672   3.062   0.640   1.467
 9424WAT      O28673   1.966   6.872   2.257
 9424WAT     H128674   1.970   6.778   2.241
 9424WAT     H228675   1.948   6.910   2.171
 9425WAT      O28676   4.386   2.669   1.523
 9425WAT     H128677   4.388   2.573   1.525
 9425WAT     H228678   4.428   2.695   1.605
 9426WAT      O28679   5.868   2.382   1.997
 9426WAT     H128680   5.899   2.311   2.054
 9426WAT     H228681   5.947   2.415   1.956
 9427WAT      O28682   0.772   2.569   0.225
 9427WAT     H128683   0.740   2.485   0.192
 9427WAT     H228684   0.823   2.547   0.303
 9428WAT      O28685   5.478   6.605   0.264
 9428WAT     H128686   5.451   6.693   0.236
 9428WAT     H228687   5.551   6.583   0.206
 9429WAT      O28688   2.260   6.013   4.642
 9429WAT     H128689   2.186   5.971   4.597
 9429WAT     H228690   2.230   6.102   4.657
 9430WAT      O28691   3.068   1.944   4.840
 9430WAT     H128692   3.128   1.870   4.830
 9430WAT     H228693   3.003   1.932   4.770
 9431WAT      O28694   3.645   5.603   2.138
 9431WAT     H128695   3.622   5.534   2.075
 9431WAT     H228696   3.614   5.684   2.098
 9432WAT      O28697   6.082   4.215   6.139
 9432WAT     H128698   6.038   4.293   6.104
 9432WAT     H228699   6.141   4.249   6.207
 9433WAT      O28700   4.561   4.555   5.123
 9433WAT     H128701   4.609   4.607   5.059
 9433WAT     H228702   4.595   4.466   5.113
 9434WAT      O28703   3.442   4.566   0.369
 9434WAT     H128704   3.511   4.542   0.431
 9434WAT     H228705   3.364   4.576   0.423
 9435WAT      O28706   0.939   3.317   3.743
 9435WAT     H128707   0.849   3.346   3.726
 9435WAT     H228708   0.993   3.393   3.724
 9436WAT      O28709   2.736   6.174   3.683
 9436WAT     H128710   2.701   6.107   3.624
 9436WAT     H228711   2.663   6.236   3.693
 9437WAT      O28712   2.509   3.346   4.693
 9437WAT     H128713   2.491   3.266   4.643
 9437WAT     H228714   2.494   3.417   4.631
 9438WAT      O28715   3.960   1.619   2.899
 9438WAT     H128716   3.973   1.548   2.837
 9438WAT     H228717   3.944   1.696   2.844
 9439WAT      O28718   2.459   3.606   6.034
 9439WAT     H128719   2.425   3.653   5.958
 9439WAT     H228720   2.526   3.548   5.999
 9440WAT      O28721   2.862   1.046   4.245
 9440WAT     H128722   2.781   1.068   4.290
 9440WAT     H228723   2.838   0.974   4.186
 9441WAT      O28724   2.930   2.730   4.227
 9441WAT     H128725   2.840   2.723   4.195
 9441WAT     H228726   2.921   2.747   4.321
 9442WAT      O28727   5.394   4.200   2.128
 9442WAT     H128728   5.428   4.193   2.039
 9442WAT     H228729   5.467   4.173   2.183
 9443WAT      O28730   6.627   4.012   4.358
 9443WAT     H128731   6.559   4.075   4.381
 9443WAT     H228732   6.615   3.940   4.419
 9444WAT      O28733   5.422   7.114   1.506
 9444WAT     H128734   5.360   7.079   1.441
 9444WAT     H228735   5.370   7.177   1.557
 9445WAT      O28736   3.895   7.048   3.474
 9445WAT     H128737   3.812   7.014   3.440
 9445WAT     H228738   3.941   6.970   3.508
 9446WAT      O28739   0.146   5.824   3.237
 9446WAT     H128740   0.074   5.857   3.183
 9446WAT     H228741   0.103   5.786   3.313
 9447WAT      O28742   1.745   4.579   3.884
 9447WAT     H128743   1.713   4.520   3.953
 9447WAT     H228744   1.801   4.523   3.831
 9448WAT      O28745   0.801   2.117   4.195
 9448WAT     H128746   0.867   2.162   4.142
 9448WAT     H228747   0.841   2.032   4.215
 9449WAT      O28748   3.732   0.881   3.221
 9449WAT     H128749   3.752   0.934   3.298
 9449WAT     H228750   3.649   0.838   3.243
 9450WAT      O28751   4.979   6.251   5.434
 9450WAT     H128752   4.934   6.263   5.350
 9450WAT     H228753   5.068   6.225   5.411
 9451WAT      O28754   4.535   1.335   2.801
 9451WAT     H128755   4.602   1.312   2.736
 9451WAT     H228756   4.463   1.371   2.750
 9452WAT      O28757   5.960   0.042   0.774
 9452WAT     H128758   5.964   0.089   0.691
 9452WAT     H228759   5.875  -0.003   0.772
 9453WAT      O28760   2.372   4.086   0.389
 9453WAT     H128761   2.348   4.061   0.479
 9453WAT     H228762   2.306   4.151   0.364
 9454WAT      O28763   3.185   7.038   0.801
 9454WAT     H128764   3.151   7.034   0.890
 9454WAT     H228765   3.113   7.006   0.746
 9455WAT      O28766   4.375   7.005   0.257
 9455WAT     H128767   4.448   6.998   0.195
 9455WAT     H228768   4.410   7.055   0.330
 9456WAT      O28769   0.230   0.019   2.488
 9456WAT     H128770   0.204  -0.071   2.510
 9456WAT     H228771   0.208   0.029   2.396
 9457WAT      O28772   6.514   1.783   4.712
 9457WAT     H128773   6.509   1.697   4.670
 9457WAT     H228774   6.481   1.844   4.645
 9458WAT      O28775   0.206   4.960   5.313
 9458WAT     H128776   0.248   4.913   5.241
 9458WAT     H228777   0.179   4.891   5.374
 9459WAT      O28778   2.990   3.998   5.752
 9459WAT     H128779   2.912   3.943   5.747
 9459WAT     H228780   3.019   4.006   5.661
 9460WAT      O28781   3.748   2.710   4.830
 9460WAT     H128782   3.714   2.724   4.741
 9460WAT     H228783   3.735   2.617   4.846
 9461WAT      O28784   3.898   4.225   4.130
 9461WAT     H128785   3.910   4.203   4.038
 9461WAT     H228786   3.836   4.298   4.130
 9462WAT      O28787   3.231   2.842   0.420
 9462WAT     H128788   3.140   2.842   0.388
 9462WAT     H228789   3.280   2.794   0.353
 9463WAT      O28790   2.533   1.497   6.034
 9463WAT     H128791   2.458   1.455   6.075
 9463WAT     H228792   2.516   1.591   6.041
 9464WAT      O28793   4.506   5.496   4.374
 9464WAT     H128794   4.573   5.563   4.388
 9464WAT     H228795   4.513   5.475   4.281
 9465WAT      O28796   3.751   1.559   3.065
 9465WAT     H128797   3.689   1.582   2.995
 9465WAT     H228798   3.837   1.583   3.029
 9466WAT      O28799   6.075   3.595   4.616
 9466WAT     H128800   6.066   3.563   4.526
 9466WAT     H228801   6.113   3.522   4.664
 9467WAT      O28802   3.840   6.579   3.438
 9467WAT     H128803   3.845   6.498   3.488
 9467WAT     H228804   3.914   6.631   3.470
 9468WAT      O28805   4.009   1.376   4.392
 9468WAT     H128806   3.963   1.361   4.475
 9468WAT     H228807   3.951   1.338   4.326
 9469WAT      O28808   5.242   3.981   0.283
 9469WAT     H128809   5.221   3.917   0.351
 9469WAT     H228810   5.321   3.947   0.241
 9470WAT      O28811   1.299   6.323   5.657
 9470WAT     H128812   1.263   6.255   5.599
 9470WAT     H228813   1.340   6.386   5.597
 9471WAT      O28814   0.624   5.266   4.518
 9471WAT     H128815   0.631   5.278   4.424
 9471WAT     H228816   0.533   5.239   4.533
 9472WAT      O28817   7.434   6.717   3.576
 9472WAT     H128818   7.359   6.696   3.521
 9472WAT     H228819   7.480   6.634   3.587
 9473WAT      O28820   6.040   6.605   2.339
 9473WAT     H128821   5.995   6.609   2.255
 9473WAT     H228822   6.092   6.685   2.343
 9474WAT      O28823   7.378   5.441   2.500
 9474WAT     H128824   7.399   5.382   2.573
 9474WAT     H228825   7.458   5.443   2.448
 9475WAT      O28826   4.106   5.511   5.371
 9475WAT     H128827   4.025   5.460   5.371
 9475WAT     H228828   4.132   5.515   5.463
 9476WAT      O28829   6.356   0.778   6.052
 9476WAT     H128830   6.318   0.815   6.132
 9476WAT     H228831   6.289   0.791   5.985
 9477WAT      O28832   3.096   5.633   5.487
 9477WAT     H128833   3.036   5.559   5.479
 9477WAT     H228834   3.107   5.666   5.398
 9478WAT      O28835   4.665   0.233   0.587
 9478WAT     H128836   4.630   0.147   0.608
 9478WAT     H228837   4.741   0.216   0.531
 9479WAT      O28838   2.884   3.632   5.519
 9479WAT     H128839   2.940   3.556   5.519
 9479WAT     H228840   2.870   3.652   5.427
 9480WAT      O28841   0.468   5.031   4.277
 9480WAT     H128842   0.497   4.960   4.220
 9480WAT     H228843   0.398   5.074   4.229
 9481WAT      O28844   5.359   2.041   0.543
 9481WAT     H128845   5.274   2.036   0.499
 9481WAT     H228846   5.405   2.112   0.498
 9482WAT      O28847   6.760   3.590   0.153
 9482WAT     H128848   6.802   3.574   0.238
 9482WAT     H228849   6.747   3.685   0.151
 9483WAT      O28850   5.239   2.000   3.092
 9483WAT     H128851   5.333   2.019   3.088
 9483WAT     H228852   5.234   1.913   3.131
 9484WAT      O28853   6.331   6.404   2.941
 9484WAT     H128854   6.362   6.315   2.922
 9484WAT     H228855   6.405   6.460   2.919
 9485WAT      O28856   3.737   1.655   3.376
 9485WAT     H128857   3.741   1.590   3.307
 9485WAT     H228858   3.807   1.717   3.354
 9486WAT      O28859   1.667   5.325   2.750
 9486WAT     H128860   1.667   5.343   2.656
 9486WAT     H228861   1.691   5.232   2.757
 9487WAT      O28862   5.927   5.409   1.093
 9487WAT     H128863   5.968   5.399   1.007
 9487WAT     H228864   5.890   5.497   1.092
 9488WAT      O28865   6.329   4.329   1.069
 9488WAT     H128866   6.242   4.369   1.072
 9488WAT     H228867   6.374   4.377   1.000
 9489WAT      O28868   6.541   0.038   3.089
 9489WAT     H128869   6.509   0.107   3.032
 9489WAT     H228870   6.467  -0.024   3.096
 9490WAT      O28871   6.335   6.289   0.947
 9490WAT     H128872   6.290   6.285   0.862
 9490WAT     H228873   6.380   6.374   0.946
 9491WAT      O28874   4.398   6.009   1.978
 9491WAT     H128875   4.400   6.061   1.898
 9491WAT     H228876   4.443   6.064   2.043
 9492WAT      O28877   3.060   6.683   4.401
 9492WAT     H128878   3.043   6.778   4.403
 9492WAT     H228879   2.984   6.647   4.355
 9493WAT      O28880   6.723   1.805   5.283
 9493WAT     H128881   6.772   1.735   5.325
 9493WAT     H228882   6.719   1.781   5.191
 9494WAT      O28883   1.307   3.520   5.683
 9494WAT     H128884   1.392   3.486   5.656
 9494WAT     H228885   1.327   3.586   5.749
 9495WAT      O28886   3.452   6.008   4.671
 9495WAT     H128887   3.366   5.979   4.698
 9495WAT     H228888   3.448   6.104   4.675
 9496WAT      O28889   1.068   5.468   5.476
 9496WAT     H128890   1.152   5.511   5.490
 9496WAT     H228891   1.080   5.419   5.395
 9497WAT      O28892   3.008   4.486   0.138
 9497WAT     H128893   3.023   4.397   0.107
 9497WAT     H228894   3.049   4.542   0.072
 9498WAT      O28895   1.179   2.272   2.632
 9498WAT     H128896   1.197   2.347   2.575
 9498WAT     H228897   1.238   2.203   2.600
 9499WAT      O28898   2.637   4.569   5.048
 9499WAT     H128899   2.631   4.477   5.021
 9499WAT     H228900   2.547   4.596   5.060
 9500WAT      O28901   1.988   0.061   2.224
 9500WAT     H128902   1.926   0.086   2.156
 9500WAT     H228903   2.067   0.036   2.177
 9501WAT      O28904   6.929   6.764   2.151
 9501WAT     H128905   6.943   6.689   2.093
 9501WAT     H228906   6.897   6.833   2.094
 9502WAT      O28907   4.550   3.801   1.398
 9502WAT     H128908   4.468   3.778   1.354
 9502WAT     H228909   4.577   3.721   1.442
 9503WAT      O28910   2.050   1.862   0.788
 9503WAT     H128911   2.055   1.947   0.744
 9503WAT     H228912   1.973   1.869   0.844
 9504WAT      O28913   6.019   5.918   0.389
 9504WAT     H128914   5.934   5.961   0.381
 9504WAT     H228915   6.011   5.839   0.334
 9505WAT      O28916   7.381   2.795   6.064
 9505WAT     H128917   7.353   2.873   6.016
 9505WAT     H228918   7.390   2.824   6.154
 9506WAT      O28919   0.602   2.214   4.843
 9506WAT     H128920   0.635   2.293   4.799
 9506WAT     H228921   0.597   2.149   4.773
 9507WAT      O28922   3.737   4.555   1.660
 9507WAT     H128923   3.695   4.637   1.636
 9507WAT     H228924   3.748   4.559   1.755
 9508WAT      O28925   4.219   5.158   0.176
 9508WAT     H128926   4.240   5.087   0.116
 9508WAT     H228927   4.152   5.121   0.234
 9509WAT      O28928   2.570   0.426   0.811
 9509WAT     H128929   2.652   0.422   0.762
 9509WAT     H228930   2.524   0.345   0.788
 9510WAT      O28931   3.149   0.741   3.332
 9510WAT     H128932   3.173   0.702   3.247
 9510WAT     H228933   3.067   0.786   3.315
 9511WAT      O28934   4.965   5.679   3.219
 9511WAT     H128935   5.056   5.659   3.200
 9511WAT     H228936   4.918   5.658   3.139
 9512WAT      O28937   2.577   0.666   1.572
 9512WAT     H128938   2.511   0.732   1.549
 9512WAT     H228939   2.526   0.587   1.592
 9513WAT      O28940   0.762   1.931   0.231
 9513WAT     H128941   0.809   1.857   0.271
 9513WAT     H228942   0.693   1.890   0.178
 9514WAT      O28943   1.064   2.440   4.840
 9514WAT     H128944   1.079   2.360   4.790
 9514WAT     H228945   1.048   2.507   4.774
 9515WAT      O28946   0.670   6.069   0.142
 9515WAT     H128947   0.623   6.152   0.135
 9515WAT     H228948   0.704   6.053   0.054
 9516WAT      O28949   3.070   5.510   2.412
 9516WAT     H128950   3.039   5.549   2.330
 9516WAT     H228951   3.109   5.427   2.386
 9517WAT      O28952   1.462   0.521   0.531
 9517WAT     H128953   1.406   0.573   0.589
 9517WAT     H228954   1.408   0.507   0.453
 9518WAT      O28955   3.186   0.694   4.336
 9518WAT     H128956   3.199   0.681   4.242
 9518WAT     H228957   3.096   0.665   4.352
 9519WAT      O28958   5.792   4.615   0.208
 9519WAT     H128959   5.826   4.636   0.121
 9519WAT     H228960   5.862   4.638   0.268
 9520WAT      O28961   0.183   2.753   1.351
 9520WAT     H128962   0.172   2.782   1.260
 9520WAT     H228963   0.104   2.784   1.395
 9521WAT      O28964   0.983   4.551   1.765
 9521WAT     H128965   0.968   4.599   1.684
 9521WAT     H228966   1.078   4.552   1.776
 9522WAT      O28967   2.198   3.277   4.803
 9522WAT     H128968   2.112   3.250   4.770
 9522WAT     H228969   2.224   3.349   4.744
 9523WAT      O28970   0.969   3.723   0.162
 9523WAT     H128971   1.033   3.794   0.164
 9523WAT     H228972   0.889   3.763   0.129
 9524WAT      O28973   5.314   4.557   2.889
 9524WAT     H128974   5.314   4.479   2.945
 9524WAT     H228975   5.313   4.630   2.951
 9525WAT      O28976   7.219   1.800   3.928
 9525WAT     H128977   7.131   1.838   3.938
 9525WAT     H228978   7.238   1.810   3.834
 9526WAT      O28979   2.092   4.297   4.143
 9526WAT     H128980   2.180   4.304   4.180
 9526WAT     H228981   2.102   4.238   4.068
 9527WAT      O28982   1.742   2.117   1.007
 9527WAT     H128983   1.832   2.109   1.040
 9527WAT     H228984   1.728   2.038   0.955
 9528WAT      O28985   5.678   5.744   6.158
 9528WAT     H128986   5.692   5.701   6.073
 9528WAT     H228987   5.619   5.816   6.138
 9529WAT      O28988   1.438   2.606   5.108
 9529WAT     H128989   1.368   2.672   5.103
 9529WAT     H228990   1.494   2.625   5.033
 9530WAT      O28991   6.831   7.136   5.587
 9530WAT     H128992   6.764   7.102   5.647
 9530WAT     H228993   6.784   7.201   5.534
 9531WAT      O28994   7.086   1.478   3.446
 9531WAT     H128995   7.143   1.496   3.521
 9531WAT     H228996   7.124   1.528   3.374
 9532WAT      O28997   2.283   6.344   0.939
 9532WAT     H128998   2.195   6.306   0.940
 9532WAT     H228999   2.302   6.358   0.846
 9533WAT      O29000   5.881   1.794   1.012
 9533WAT     H129001   5.907   1.884   0.993
 9533WAT     H229002   5.857   1.758   0.927
 9534WAT      O29003   3.344   3.902   5.304
 9534WAT     H129004   3.251   3.879   5.311
 9534WAT     H229005   3.380   3.836   5.245
 9535WAT      O29006   7.607   3.642   1.311
 9535WAT     H129007   7.614   3.598   1.226
 9535WAT     H229008   7.652   3.726   1.298
 9536WAT      O29009   2.044   4.267   6.098
 9536WAT     H129010   2.087   4.230   6.175
 9536WAT     H229011   1.955   4.288   6.127
 9537WAT      O29012   6.545   6.715   3.763
 9537WAT     H129013   6.605   6.739   3.692
 9537WAT     H229014   6.474   6.668   3.718
 9538WAT      O29015   6.237   5.138   5.073
 9538WAT     H129016   6.180   5.215   5.071
 9538WAT     H229017   6.185   5.069   5.033
 9539WAT      O29018   6.585   6.521   2.082
 9539WAT     H129019   6.593   6.615   2.099
 9539WAT     H229020   6.491   6.505   2.082
 9540WAT      O29021   4.829   1.246   1.477
 9540WAT     H129022   4.810   1.339   1.490
 9540WAT     H229023   4.759   1.215   1.419
 9541WAT      O29024   2.799   3.702   5.255
 9541WAT     H129025   2.848   3.661   5.183
 9541WAT     H229026   2.713   3.661   5.251
 9542WAT      O29027   7.421   5.430   2.826
 9542WAT     H129028   7.443   5.494   2.894
 9542WAT     H229029   7.340   5.389   2.857
 9543WAT      O29030   3.005   0.381   4.823
 9543WAT     H129031   2.930   0.402   4.879
 9543WAT     H229032   3.066   0.453   4.837
 9544WAT      O29033   3.436   1.491   0.807
 9544WAT     H129034   3.418   1.425   0.740
 9544WAT     H229035   3.493   1.554   0.764
 9545WAT      O29036   6.503   3.817   1.305
 9545WAT     H129037   6.465   3.779   1.225
 9545WAT     H229038   6.443   3.790   1.375
 9546WAT      O29039   7.397   5.707   2.573
 9546WAT     H129040   7.485   5.728   2.540
 9546WAT     H229041   7.386   5.614   2.552
 9547WAT      O29042   4.569   7.123   3.440
 9547WAT     H129043   4.662   7.122   3.463
 9547WAT     H229044   4.557   7.203   3.389
 9548WAT      O29045   0.983   2.471   5.685
 9548WAT     H129046   0.999   2.383   5.650
 9548WAT     H229047   1.039   2.477   5.761
 9549WAT      O29048   5.145   4.928   2.580
 9549WAT     H129049   5.082   4.935   2.508
 9549WAT     H229050   5.145   4.835   2.602
 9550WAT      O29051   3.507   6.041   4.393
 9550WAT     H129052   3.432   6.043   4.333
 9550WAT     H229053   3.468   6.030   4.480
 9551WAT      O29054   0.256   0.177   5.257
 9551WAT     H129055   0.285   0.128   5.180
 9551WAT     H229056   0.176   0.133   5.285
 9552WAT      O29057   3.278   5.958   1.078
 9552WAT     H129058   3.266   5.947   0.983
 9552WAT     H229059   3.238   6.043   1.097
 9553WAT      O29060   3.742   3.965   1.331
 9553WAT     H129061   3.711   3.879   1.360
 9553WAT     H229062   3.763   3.953   1.238
 9554WAT      O29063   3.795   6.785   2.514
 9554WAT     H129064   3.704   6.787   2.484
 9554WAT     H229065   3.791   6.818   2.604
 9555WAT      O29066   1.851   1.125   2.621
 9555WAT     H129067   1.817   1.208   2.587
 9555WAT     H229068   1.856   1.138   2.715
 9556WAT      O29069   2.162   3.938   5.306
 9556WAT     H129070   2.094   3.885   5.348
 9556WAT     H229071   2.171   3.900   5.218
 9557WAT      O29072   1.634   3.149   3.507
 9557WAT     H129073   1.569   3.089   3.545
 9557WAT     H229074   1.583   3.227   3.484
 9558WAT      O29075   5.864   5.533   4.098
 9558WAT     H129076   5.864   5.526   4.002
 9558WAT     H229077   5.772   5.533   4.122
 9559WAT      O29078   0.233   6.367   2.944
 9559WAT     H129079   0.246   6.314   2.865
 9559WAT     H229080   0.188   6.446   2.912
 9560WAT      O29081   4.085   5.743   0.415
 9560WAT     H129082   4.029   5.673   0.448
 9560WAT     H229083   4.174   5.711   0.428
 9561WAT      O29084   1.990   4.711   5.456
 9561WAT     H129085   2.027   4.797   5.440
 9561WAT     H229086   2.053   4.669   5.515
 9562WAT      O29087   2.863   5.580   4.612
 9562WAT     H129088   2.951   5.541   4.612
 9562WAT     H229089   2.879   5.674   4.599
 9563WAT      O29090   3.854   5.786   4.684
 9563WAT     H129091   3.933   5.839   4.678
 9563WAT     H229092   3.883   5.706   4.729
 9564WAT      O29093   3.385   1.511   4.426
 9564WAT     H129094   3.387   1.427   4.380
 9564WAT     H229095   3.350   1.573   4.362
 9565WAT      O29096   6.059   3.546   3.432
 9565WAT     H129097   5.969   3.576   3.448
 9565WAT     H229098   6.109   3.581   3.506
 9566WAT      O29099   0.126   6.736   2.543
 9566WAT     H129100   0.070   6.802   2.502
 9566WAT     H229101   0.103   6.654   2.501
 9567WAT      O29102   7.387   5.679   1.503
 9567WAT     H129103   7.336   5.671   1.422
 9567WAT     H229104   7.473   5.709   1.475
 9568WAT      O29105   2.766   1.891   5.699
 9568WAT     H129106   2.715   1.844   5.764
 9568WAT     H229107   2.785   1.825   5.631
 9569WAT      O29108   1.317   5.837   3.394
 9569WAT     H129109   1.264   5.791   3.328
 9569WAT     H229110   1.391   5.779   3.410
 9570WAT      O29111   1.580   4.479   1.230
 9570WAT     H129112   1.529   4.400   1.251
 9570WAT     H229113   1.612   4.463   1.141
 9571WAT      O29114   7.023   2.270   5.402
 9571WAT     H129115   7.025   2.263   5.306
 9571WAT     H229116   7.071   2.351   5.421
 9572WAT      O29117   4.115   6.592   3.861
 9572WAT     H129118   4.071   6.517   3.902
 9572WAT     H229119   4.118   6.658   3.931
 9573WAT      O29120   5.841   0.671   2.876
 9573WAT     H129121   5.792   0.716   2.808
 9573WAT     H229122   5.881   0.596   2.832
 9574WAT      O29123   5.340   4.420   1.396
 9574WAT     H129124   5.344   4.446   1.304
 9574WAT     H229125   5.362   4.501   1.443
 9575WAT      O29126   0.557   6.208   2.802
 9575WAT     H129127   0.559   6.123   2.758
 9575WAT     H229128   0.642   6.214   2.847
 9576WAT      O29129   5.545   6.463   4.305
 9576WAT     H129130   5.477   6.530   4.313
 9576WAT     H229131   5.613   6.490   4.367
 9577WAT      O29132   6.911   5.796   3.162
 9577WAT     H129133   6.857   5.847   3.102
 9577WAT     H229134   6.993   5.782   3.115
 9578WAT      O29135   1.081   2.513   5.118
 9578WAT     H129136   1.069   2.509   5.023
 9578WAT     H229137   1.110   2.425   5.141
 9579WAT      O29138   3.365   4.333   1.252
 9579WAT     H129139   3.335   4.244   1.268
 9579WAT     H229140   3.326   4.385   1.322
 9580WAT      O29141   3.464   6.679   0.880
 9580WAT     H129142   3.445   6.598   0.929
 9580WAT     H229143   3.471   6.650   0.789
 9581WAT      O29144   2.521   3.183   0.959
 9581WAT     H129145   2.463   3.259   0.972
 9581WAT     H229146   2.462   3.113   0.932
 9582WAT      O29147   0.310   4.662   1.890
 9582WAT     H129148   0.261   4.738   1.921
 9582WAT     H229149   0.281   4.650   1.800
 9583WAT      O29150   5.462   6.665   4.647
 9583WAT     H129151   5.393   6.602   4.668
 9583WAT     H229152   5.446   6.689   4.556
 9584WAT      O29153   7.603   0.758   4.583
 9584WAT     H129154   7.632   0.824   4.645
 9584WAT     H229155   7.548   0.699   4.634
 9585WAT      O29156   6.722   2.488   3.809
 9585WAT     H129157   6.736   2.400   3.775
 9585WAT     H229158   6.783   2.544   3.760
 9586WAT      O29159   2.622   0.980   4.937
 9586WAT     H129160   2.656   0.907   4.989
 9586WAT     H229161   2.574   0.939   4.866
 9587WAT      O29162   6.418   1.248   4.385
 9587WAT     H129163   6.424   1.275   4.476
 9587WAT     H229164   6.329   1.216   4.375
 9588WAT      O29165   6.472   2.954   5.680
 9588WAT     H129166   6.460   3.026   5.742
 9588WAT     H229167   6.414   2.975   5.607
 9589WAT      O29168   3.965   7.009   1.882
 9589WAT     H129169   3.984   7.022   1.789
 9589WAT     H229170   3.871   6.988   1.884
 9590WAT      O29171   7.519   1.052   2.891
 9590WAT     H129172   7.583   1.010   2.833
 9590WAT     H229173   7.545   1.144   2.891
 9591WAT      O29174   3.113   2.886   2.616
 9591WAT     H129175   3.205   2.866   2.601
 9591WAT     H229176   3.066   2.828   2.556
 9592WAT      O29177   4.370   2.772   1.112
 9592WAT     H129178   4.462   2.800   1.113
 9592WAT     H229179   4.374   2.679   1.136
 9593WAT      O29180   5.573   0.865   4.309
 9593WAT     H129181   5.508   0.935   4.302
 9593WAT     H229182   5.574   0.824   4.223
 9594WAT      O29183   5.117   3.801   2.263
 9594WAT     H129184   5.042   3.745   2.279
 9594WAT     H229185   5.083   3.873   2.209
 9595WAT      O29186   3.695   3.225   0.762
 9595WAT     H129187   3.603   3.237   0.737
 9595WAT     H229188   3.739   3.203   0.680
 9596WAT      O29189   1.305   5.898   1.635
 9596WAT     H129190   1.370   5.847   1.684
 9596WAT     H229191   1.221   5.868   1.668
 9597WAT      O29192   6.017   0.292   3.092
 9597WAT     H129193   6.041   0.203   3.064
 9597WAT     H229194   6.056   0.349   3.026
 9598WAT      O29195   1.176   2.655   3.816
 9598WAT     H129196   1.142   2.583   3.762
 9598WAT     H229197   1.101   2.713   3.827
 9599WAT      O29198   4.115   6.386   5.197
 9599WAT     H129199   4.087   6.386   5.289
 9599WAT     H229200   4.132   6.293   5.178
 9600WAT      O29201   1.724   1.185   5.255
 9600WAT     H129202   1.659   1.181   5.326
 9600WAT     H229203   1.694   1.258   5.200
 9601WAT      O29204   3.374   6.345   4.328
 9601WAT     H129205   3.415   6.314   4.248
 9601WAT     H229206   3.314   6.414   4.300
 9602WAT      O29207   5.349   1.462   1.439
 9602WAT     H129208   5.390   1.543   1.470
 9602WAT     H229209   5.421   1.400   1.429
 9603WAT      O29210   6.847   4.218   1.250
 9603WAT     H129211   6.921   4.158   1.249
 9603WAT     H229212   6.771   4.162   1.263
 9604WAT      O29213   7.402   5.256   5.879
 9604WAT     H129214   7.330   5.194   5.883
 9604WAT     H229215   7.481   5.203   5.891
 9605WAT      O29216   0.480   6.757   0.269
 9605WAT     H129217   0.574   6.773   0.256
 9605WAT     H229218   0.437   6.833   0.230
 9606WAT      O29219   4.528   4.143   2.815
 9606WAT     H129220   4.514   4.178   2.727
 9606WAT     H229221   4.479   4.061   2.816
 9607WAT      O29222   6.401   1.949   5.050
 9607WAT     H129223   6.387   1.862   5.012
 9607WAT     H229224   6.492   1.969   5.030
 9608WAT      O29225   1.186   3.461   4.564
 9608WAT     H129226   1.136   3.526   4.513
 9608WAT     H229227   1.268   3.450   4.516
 9609WAT      O29228   7.566   2.421   5.327
 9609WAT     H129229   7.491   2.362   5.318
 9609WAT     H229230   7.589   2.443   5.237
 9610WAT      O29231   4.106   6.908   2.511
 9610WAT     H129232   4.118   6.816   2.532
 9610WAT     H229233   4.059   6.909   2.427
 9611WAT      O29234   4.136   2.280   5.579
 9611WAT     H129235   4.165   2.371   5.591
 9611WAT     H229236   4.062   2.287   5.519
 9612WAT      O29237   2.787   1.635   2.647
 9612WAT     H129238   2.843   1.598   2.578
 9612WAT     H229239   2.727   1.693   2.600
 9613WAT      O29240   4.295   5.524   0.015
 9613WAT     H129241   4.301   5.596   0.078
 9613WAT     H229242   4.326   5.562  -0.067
 9614WAT      O29243   3.483   0.054   0.033
 9614WAT     H129244   3.428   0.100  -0.031
 9614WAT     H229245   3.474  -0.039   0.009
 9615WAT      O29246   1.804   2.183   3.911
 9615WAT     H129247   1.900   2.175   3.909
 9615WAT     H229248   1.784   2.245   3.841
 9616WAT      O29249   2.829   1.308   1.233
 9616WAT     H129250   2.894   1.240   1.251
 9616WAT     H229251   2.750   1.259   1.210
 9617WAT      O29252   5.664   4.462   2.887
 9617WAT     H129253   5.705   4.522   2.824
 9617WAT     H229254   5.583   4.435   2.844
 9618WAT      O29255   4.029   0.841   3.202
 9618WAT     H129256   3.947   0.888   3.183
 9618WAT     H229257   4.091   0.910   3.225
 9619WAT      O29258   6.421   2.401   1.928
 9619WAT     H129259   6.405   2.377   2.020
 9619WAT     H229260   6.500   2.353   1.904
 9620WAT      O29261   6.780   5.919   4.079
 9620WAT     H129262   6.874   5.928   4.060
 9620WAT     H229263   6.761   5.991   4.139
 9621WAT      O29264   2.628   1.581   4.464
 9621WAT     H129265   2.611   1.668   4.500
 9621WAT     H229266   2.624   1.522   4.539
 9622WAT      O29267   4.915   0.885   1.965
 9622WAT     H129268   4.830   0.855   1.931
 9622WAT     H229269   4.893   0.954   2.028
 9623WAT      O29270   4.803   0.580   6.040
 9623WAT     H129271   4.841   0.656   5.996
 9623WAT     H229272   4.797   0.606   6.132
 9624WAT      O29273   3.457   4.895   5.478
 9624WAT     H129274   3.388   4.914   5.542
 9624WAT     H229275   3.452   4.800   5.464
 9625WAT      O29276   1.380   6.683   5.812
 9625WAT     H129277   1.393   6.777   5.827
 9625WAT     H229278   1.339   6.677   5.726
 9626WAT      O29279   5.425   4.208   2.822
 9626WAT     H129280   5.398   4.262   2.748
 9626WAT     H229281   5.392   4.254   2.899
 9627WAT      O29282   6.374   5.591   4.302
 9627WAT     H129283   6.340   5.577   4.213
 9627WAT     H229284   6.376   5.504   4.341
 9628WAT      O29285   0.860   5.629   5.435
 9628WAT     H129286   0.906   5.696   5.383
 9628WAT     H229287   0.922   5.557   5.442
 9629WAT      O29288   0.016   3.113   2.912
 9629WAT     H129289  -0.007   3.131   2.821
 9629WAT     H229290   0.057   3.027   2.910
 9630WAT      O29291   7.258   2.579   4.638
 9630WAT     H129292   7.314   2.607   4.711
 9630WAT     H229293   7.197   2.651   4.626
 9631WAT      O29294   4.685   6.612   0.536
 9631WAT     H129295   4.769   6.653   0.555
 9631WAT     H229296   4.667   6.557   0.612
 9632WAT      O29297   3.329   6.599   0.294
 9632WAT     H129298   3.359   6.513   0.324
 9632WAT     H229299   3.295   6.641   0.373
 9633WAT      O29300   1.563   0.043   0.970
 9633WAT     H129301   1.470   0.063   0.969
 9633WAT     H229302   1.575  -0.018   0.896
 9634WAT      O29303   3.867   1.521   1.644
 9634WAT     H129304   3.937   1.555   1.587
 9634WAT     H229305   3.807   1.477   1.584
 9635WAT      O29306   3.686   2.182   0.922
 9635WAT     H129307   3.691   2.266   0.877
 9635WAT     H229308   3.710   2.117   0.855
 9636WAT      O29309   3.739   0.777   0.946
 9636WAT     H129310   3.795   0.847   0.978
 9636WAT     H229311   3.762   0.768   0.854
 9637WAT      O29312   4.653   6.246   4.839
 9637WAT     H129313   4.563   6.228   4.813
 9637WAT     H229314   4.657   6.341   4.851
 9638WAT      O29315   7.236   3.211   1.789
 9638WAT     H129316   7.322   3.206   1.831
 9638WAT     H229317   7.175   3.228   1.861
 9639WAT      O29318   5.617   6.002   2.045
 9639WAT     H129319   5.598   6.081   1.995
 9639WAT     H229320   5.630   6.033   2.135
 9640WAT      O29321   5.896   4.489   5.091
 9640WAT     H129322   5.984   4.451   5.085
 9640WAT     H229323   5.837   4.414   5.084
 9641WAT      O29324   0.503   4.088   4.534
 9641WAT     H129325   0.564   4.160   4.516
 9641WAT     H229326   0.552   4.009   4.513
 9642WAT      O29327   3.977   6.149   5.654
 9642WAT     H129328   3.908   6.094   5.692
 9642WAT     H229329   4.058   6.115   5.692
 9643WAT      O29330   4.370   4.120   5.294
 9643WAT     H129331   4.323   4.203   5.298
 9643WAT     H229332   4.389   4.107   5.201
 9644WAT      O29333   6.490   5.851   3.230
 9644WAT     H129334   6.563   5.794   3.205
 9644WAT     H229335   6.500   5.928   3.175
 9645WAT      O29336   5.506   0.099   0.347
 9645WAT     H129337   5.423   0.116   0.302
 9645WAT     H229338   5.567   0.075   0.277
 9646WAT      O29339   3.324   5.736   5.608
 9646WAT     H129340   3.378   5.767   5.535
 9646WAT     H229341   3.246   5.700   5.566
 9647WAT      O29342   2.433   3.784   4.398
 9647WAT     H129343   2.407   3.830   4.478
 9647WAT     H229344   2.524   3.759   4.413
 9648WAT      O29345   1.006   4.219   1.638
 9648WAT     H129346   1.012   4.153   1.707
 9648WAT     H229347   1.087   4.269   1.645
 9649WAT      O29348   5.993   6.607   6.210
 9649WAT     H129349   5.968   6.537   6.271
 9649WAT     H229350   6.084   6.587   6.187
 9650WAT      O29351   0.872   1.484   3.130
 9650WAT     H129352   0.879   1.454   3.039
 9650WAT     H229353   0.913   1.414   3.181
 9651WAT      O29354   4.982   6.931   5.178
 9651WAT     H129355   5.029   6.945   5.096
 9651WAT     H229356   4.925   6.856   5.160
 9652WAT      O29357   2.063   4.831   0.084
 9652WAT     H129358   2.047   4.763   0.019
 9652WAT     H229359   1.994   4.820   0.149
 9653WAT      O29360   2.666   4.070   1.797
 9653WAT     H129361   2.571   4.077   1.800
 9653WAT     H229362   2.692   4.118   1.718
 9654WAT      O29363   4.847   1.358   2.313
 9654WAT     H129364   4.814   1.287   2.258
 9654WAT     H229365   4.940   1.338   2.324
 9655WAT      O29366   0.259   4.183   0.423
 9655WAT     H129367   0.248   4.140   0.338
 9655WAT     H229368   0.349   4.215   0.421
 9656WAT      O29369   6.527   7.089   0.778
 9656WAT     H129370   6.440   7.050   0.785
 9656WAT     H229371   6.540   7.136   0.860
 9657WAT      O29372   5.118   1.399   1.572
 9657WAT     H129373   5.063   1.475   1.555
 9657WAT     H229374   5.178   1.395   1.498
 9658WAT      O29375   6.023   4.578   3.018
 9658WAT     H129376   5.982   4.644   2.962
 9658WAT     H229377   6.083   4.531   2.960
 9659WAT      O29378   7.454   1.663   4.239
 9659WAT     H129379   7.452   1.617   4.155
 9659WAT     H229380   7.444   1.756   4.216
 9660WAT      O29381   0.343   5.485   1.605
 9660WAT     H129382   0.365   5.417   1.541
 9660WAT     H229383   0.301   5.553   1.553
 9661WAT      O29384   3.880   6.992   4.267
 9661WAT     H129385   3.942   7.064   4.260
 9661WAT     H229386   3.891   6.960   4.356
 9662WAT      O29387   1.985   2.507   4.776
 9662WAT     H129388   1.945   2.582   4.732
 9662WAT     H229389   2.020   2.543   4.858
 9663WAT      O29390   7.423   4.611   6.135
 9663WAT     H129391   7.415   4.665   6.057
 9663WAT     H229392   7.449   4.525   6.103
 9664WAT      O29393   2.453   3.725   4.992
 9664WAT     H129394   2.404   3.712   5.074
 9664WAT     H229395   2.390   3.702   4.923
 9665WAT      O29396   1.939   1.504   1.292
 9665WAT     H129397   2.006   1.537   1.232
 9665WAT     H229398   1.910   1.581   1.341
 9666WAT      O29399   1.457   4.887   5.278
 9666WAT     H129400   1.510   4.826   5.227
 9666WAT     H229401   1.520   4.931   5.335
 9667WAT      O29402   5.747   3.627   0.901
 9667WAT     H129403   5.799   3.574   0.962
 9667WAT     H229404   5.735   3.571   0.825
 9668WAT      O29405   6.605   3.512   0.684
 9668WAT     H129406   6.689   3.494   0.642
 9668WAT     H229407   6.570   3.587   0.636
 9669WAT      O29408   5.498   6.513   3.101
 9669WAT     H129409   5.408   6.526   3.071
 9669WAT     H229410   5.491   6.510   3.197
 9670WAT      O29411   4.417   5.362   0.688
 9670WAT     H129412   4.357   5.295   0.721
 9670WAT     H229413   4.454   5.324   0.608
 9671WAT      O29414   0.889   5.300   3.065
 9671WAT     H129415   0.848   5.386   3.062
 9671WAT     H229416   0.826   5.242   3.023
 9672WAT      O29417   6.514   0.102   0.999
 9672WAT     H129418   6.555   0.069   1.079
 9672WAT     H229419   6.567   0.179   0.975
 9673WAT      O29420   6.073   7.074   2.513
 9673WAT     H129421   6.132   7.136   2.471
 9673WAT     H229422   6.035   7.024   2.441
 9674WAT      O29423   0.784   0.634   1.678
 9674WAT     H129424   0.732   0.684   1.616
 9674WAT     H229425   0.731   0.556   1.698
 9675WAT      O29426   5.175   0.082   0.875
 9675WAT     H129427   5.166   0.081   0.970
 9675WAT     H229428   5.112   0.017   0.844
 9676WAT      O29429   6.896   2.313   1.686
 9676WAT     H129430   6.828   2.246   1.678
 9676WAT     H229431   6.905   2.349   1.598
 9677WAT      O29432   4.614   6.751   4.275
 9677WAT     H129433   4.673   6.765   4.348
 9677WAT     H229434   4.593   6.658   4.278
 9678WAT      O29435   6.501   0.824   1.600
 9678WAT     H129436   6.576   0.841   1.543
 9678WAT     H229437   6.459   0.910   1.610
 9679WAT      O29438   0.363   1.544   2.130
 9679WAT     H129439   0.366   1.465   2.184
 9679WAT     H229440   0.274   1.578   2.142
 9680WAT      O29441   7.249   7.074   0.335
 9680WAT     H129442   7.211   7.120   0.409
 9680WAT     H229443   7.196   7.102   0.260
 9681WAT      O29444   7.184   2.371   1.078
 9681WAT     H129445   7.126   2.368   1.154
 9681WAT     H229446   7.149   2.305   1.018
 9682WAT      O29447   7.581   1.490   1.076
 9682WAT     H129448   7.656   1.485   1.136
 9682WAT     H229449   7.621   1.495   0.989
 9683WAT      O29450   4.243   2.831   5.128
 9683WAT     H129451   4.173   2.892   5.105
 9683WAT     H229452   4.316   2.856   5.072
 9684WAT      O29453   4.881   4.218   1.284
 9684WAT     H129454   4.851   4.169   1.207
 9684WAT     H229455   4.962   4.261   1.254
 9685WAT      O29456   4.593   1.018   4.401
 9685WAT     H129457   4.625   0.928   4.394
 9685WAT     H229458   4.664   1.072   4.367
 9686WAT      O29459   1.580   5.874   5.975
 9686WAT     H129460   1.508   5.921   6.018
 9686WAT     H229461   1.639   5.943   5.945
 9687WAT      O29462   3.597   5.025   4.501
 9687WAT     H129463   3.515   5.050   4.543
 9687WAT     H229464   3.636   5.109   4.473
 9688WAT      O29465   6.870   0.921   0.820
 9688WAT     H129466   6.787   0.964   0.841
 9688WAT     H229467   6.914   0.984   0.762
 9689WAT      O29468   3.244   6.993   3.023
 9689WAT     H129469   3.243   7.087   3.002
 9689WAT     H229470   3.241   6.949   2.938
 9690WAT      O29471   0.761   1.046   6.159
 9690WAT     H129472   0.804   0.962   6.176
 9690WAT     H229473   0.714   1.033   6.077
 9691WAT      O29474   2.440   4.575   0.033
 9691WAT     H129475   2.524   4.540   0.061
 9691WAT     H229476   2.448   4.584  -0.062
 9692WAT      O29477   4.702   1.781   1.733
 9692WAT     H129478   4.619   1.769   1.688
 9692WAT     H229479   4.717   1.876   1.733
 9693WAT      O29480   0.502   6.764   4.833
 9693WAT     H129481   0.504   6.797   4.743
 9693WAT     H229482   0.590   6.730   4.848
 9694WAT      O29483   5.161   5.536   2.621
 9694WAT     H129484   5.206   5.451   2.627
 9694WAT     H229485   5.216   5.596   2.671
 9695WAT      O29486   3.136   5.550   2.857
 9695WAT     H129487   3.194   5.562   2.782
 9695WAT     H229488   3.056   5.598   2.835
 9696WAT      O29489   3.693   0.467   3.357
 9696WAT     H129490   3.603   0.492   3.337
 9696WAT     H229491   3.685   0.395   3.419
 9697WAT      O29492   4.222   3.482   5.711
 9697WAT     H129493   4.253   3.558   5.661
 9697WAT     H229494   4.171   3.431   5.648
 9698WAT      O29495   2.669   2.096   4.587
 9698WAT     H129496   2.587   2.143   4.602
 9698WAT     H229497   2.737   2.162   4.596
 9699WAT      O29498   5.956   4.009   2.972
 9699WAT     H129499   5.872   3.977   2.939
 9699WAT     H229500   6.008   4.025   2.893
 9700WAT      O29501   6.011   1.148   3.669
 9700WAT     H129502   5.978   1.087   3.603
 9700WAT     H229503   6.099   1.169   3.638
 9701WAT      O29504   4.723   5.317   1.071
 9701WAT     H129505   4.814   5.330   1.096
 9701WAT     H229506   4.722   5.332   0.976
 9702WAT      O29507   5.258   3.133   0.721
 9702WAT     H129508   5.181   3.185   0.699
 9702WAT     H229509   5.299   3.113   0.637
 9703WAT      O29510   0.333   6.276   6.208
 9703WAT     H129511   0.354   6.199   6.261
 9703WAT     H229512   0.326   6.243   6.119
 9704WAT      O29513   4.249   1.788   5.546
 9704WAT     H129514   4.204   1.790   5.462
 9704WAT     H229515   4.254   1.695   5.568
 9705WAT      O29516   6.616   1.815   1.668
 9705WAT     H129517   6.658   1.760   1.602
 9705WAT     H229518   6.555   1.870   1.619
 9706WAT      O29519   6.221   6.641   3.964
 9706WAT     H129520   6.187   6.726   3.935
 9706WAT     H229521   6.316   6.654   3.967
 9707WAT      O29522   3.134   0.685   2.037
 9707WAT     H129523   3.146   0.724   1.951
 9707WAT     H229524   3.220   0.691   2.079
 9708WAT      O29525   6.593   3.073   0.722
 9708WAT     H129526   6.565   3.157   0.759
 9708WAT     H229527   6.530   3.009   0.758
 9709WAT      O29528   4.391   3.352   1.721
 9709WAT     H129529   4.452   3.335   1.650
 9709WAT     H229530   4.313   3.302   1.698
 9710WAT      O29531   5.540   3.261   0.763
 9710WAT     H129532   5.548   3.168   0.783
 9710WAT     H229533   5.471   3.266   0.698
 9711WAT      O29534   4.817   3.510   5.092
 9711WAT     H129535   4.818   3.605   5.094
 9711WAT     H229536   4.802   3.488   5.000
 9712WAT      O29537   7.527   3.311   4.802
 9712WAT     H129538   7.563   3.372   4.865
 9712WAT     H229539   7.432   3.315   4.815
 9713WAT      O29540   1.465   4.237   1.244
 9713WAT     H129541   1.467   4.178   1.169
 9713WAT     H229542   1.415   4.190   1.310
 9714WAT      O29543   5.848   6.882   3.325
 9714WAT     H129544   5.797   6.832   3.388
 9714WAT     H229545   5.831   6.973   3.347
 9715WAT      O29546   5.088   4.754   3.870
 9715WAT     H129547   5.170   4.777   3.913
 9715WAT     H229548   5.083   4.813   3.795
 9716WAT      O29549   5.314   4.941   1.662
 9716WAT     H129550   5.313   5.014   1.600
 9716WAT     H229551   5.266   4.974   1.738
 9717WAT      O29552   0.736   1.574   0.692
 9717WAT     H129553   0.657   1.586   0.640
 9717WAT     H229554   0.784   1.657   0.683
 9718WAT      O29555   0.214   5.511   3.976
 9718WAT     H129556   0.296   5.466   3.955
 9718WAT     H229557   0.162   5.446   4.023
 9719WAT      O29558   0.656   3.695   1.383
 9719WAT     H129559   0.748   3.720   1.389
 9719WAT     H229560   0.636   3.699   1.289
 9720WAT      O29561   3.340   5.969   2.908
 9720WAT     H129562   3.367   5.880   2.930
 9720WAT     H229563   3.398   5.995   2.837
 9721WAT      O29564   2.690   2.805   0.151
 9721WAT     H129565   2.617   2.772   0.098
 9721WAT     H229566   2.768   2.771   0.108
 9722WAT      O29567   3.496   5.599   4.149
 9722WAT     H129568   3.535   5.664   4.091
 9722WAT     H229569   3.570   5.558   4.194
 9723WAT      O29570   1.060   6.251   5.870
 9723WAT     H129571   0.987   6.312   5.858
 9723WAT     H229572   1.131   6.288   5.817
 9724WAT      O29573   1.390   6.720   1.934
 9724WAT     H129574   1.381   6.702   2.028
 9724WAT     H229575   1.420   6.637   1.897
 9725WAT      O29576   4.005   4.990   4.750
 9725WAT     H129577   3.930   4.932   4.736
 9725WAT     H229578   4.077   4.931   4.776
 9726WAT      O29579   4.824   4.490   5.891
 9726WAT     H129580   4.817   4.513   5.799
 9726WAT     H229581   4.775   4.559   5.937
 9727WAT      O29582   3.647   6.997   4.748
 9727WAT     H129583   3.647   6.964   4.658
 9727WAT     H229584   3.695   6.930   4.797
 9728WAT      O29585   6.328   0.132   4.987
 9728WAT     H129586   6.274   0.158   4.912
 9728WAT     H229587   6.277   0.065   5.031
 9729WAT      O29588   0.742   6.275   1.970
 9729WAT     H129589   0.832   6.250   1.951
 9729WAT     H229590   0.702   6.289   1.884
 9730WAT      O29591   1.977   1.102   1.949
 9730WAT     H129592   1.954   1.150   1.869
 9730WAT     H229593   1.893   1.087   1.992
 9731WAT      O29594   5.927   5.797   4.458
 9731WAT     H129595   5.999   5.816   4.519
 9731WAT     H229596   5.921   5.701   4.458
 9732WAT      O29597   4.955   1.681   3.319
 9732WAT     H129598   4.973   1.755   3.377
 9732WAT     H229599   4.899   1.717   3.251
 9733WAT      O29600   1.363   3.848   4.946
 9733WAT     H129601   1.332   3.771   4.899
 9733WAT     H229602   1.387   3.910   4.877
 9734WAT      O29603   1.347   4.949   1.395
 9734WAT     H129604   1.381   4.984   1.477
 9734WAT     H229605   1.312   5.025   1.348
 9735WAT      O29606   1.497   1.254   5.869
 9735WAT     H129607   1.510   1.284   5.779
 9735WAT     H229608   1.512   1.331   5.923
 9736WAT      O29609   4.905   3.023   1.169
 9736WAT     H129610   4.847   3.044   1.241
 9736WAT     H229611   4.972   3.091   1.170
 9737WAT      O29612   3.929   3.246   5.826
 9737WAT     H129613   3.894   3.270   5.741
 9737WAT     H229614   3.920   3.150   5.829
 9738WAT      O29615   3.635   4.991   3.565
 9738WAT     H129616   3.550   5.034   3.561
 9738WAT     H229617   3.660   4.979   3.474
 9739WAT      O29618   6.634   2.053   0.172
 9739WAT     H129619   6.725   2.032   0.150
 9739WAT     H229620   6.594   1.968   0.192
 9740WAT      O29621   5.578   2.013   2.448
 9740WAT     H129622   5.599   1.992   2.357
 9740WAT     H229623   5.549   1.930   2.486
 9741WAT      O29624   1.480   0.550   4.950
 9741WAT     H129625   1.394   0.555   4.909
 9741WAT     H229626   1.531   0.491   4.894
 9742WAT      O29627   1.691   1.897   0.806
 9742WAT     H129628   1.728   1.808   0.803
 9742WAT     H229629   1.633   1.901   0.729
 9743WAT      O29630   3.317   2.106   3.356
 9743WAT     H129631   3.361   2.167   3.296
 9743WAT     H229632   3.312   2.154   3.438
 9744WAT      O29633   6.489   3.604   4.914
 9744WAT     H129634   6.472   3.618   4.821
 9744WAT     H229635   6.579   3.635   4.927
 9745WAT      O29636   4.643   0.988   2.637
 9745WAT     H129637   4.719   1.018   2.685
 9745WAT     H229638   4.616   1.064   2.584
 9746WAT      O29639   0.296   4.991   2.466
 9746WAT     H129640   0.276   5.078   2.431
 9746WAT     H229641   0.348   5.007   2.544
 9747WAT      O29642   4.187   1.242   5.492
 9747WAT     H129643   4.108   1.295   5.504
 9747WAT     H229644   4.254   1.306   5.466
 9748WAT      O29645   2.193   4.437   2.595
 9748WAT     H129646   2.241   4.383   2.532
 9748WAT     H229647   2.260   4.494   2.633
 9749WAT      O29648   5.061   2.670   3.918
 9749WAT     H129649   4.970   2.643   3.904
 9749WAT     H229650   5.098   2.677   3.830
 9750WAT      O29651   2.282   5.044   5.907
 9750WAT     H129652   2.243   5.043   5.819
 9750WAT     H229653   2.208   5.061   5.966
 9751WAT      O29654   1.788   4.980   4.824
 9751WAT     H129655   1.770   4.985   4.730
 9751WAT     H229656   1.734   5.050   4.862
 9752WAT      O29657   6.929   3.456   2.023
 9752WAT     H129658   6.835   3.476   2.022
 9752WAT     H229659   6.971   3.538   1.999
 9753WAT      O29660   3.023   6.392   2.672
 9753WAT     H129661   3.017   6.390   2.577
 9753WAT     H229662   3.030   6.300   2.699
 9754WAT      O29663   2.019   3.631   4.165
 9754WAT     H129664   2.028   3.692   4.091
 9754WAT     H229665   2.108   3.600   4.181
 9755WAT      O29666   0.074   6.014   5.605
 9755WAT     H129667   0.035   6.056   5.529
 9755WAT     H229668   0.163   5.991   5.577
 9756WAT      O29669   6.791   1.032   2.240
 9756WAT     H129670   6.798   1.037   2.335
 9756WAT     H229671   6.723   0.967   2.224
 9757WAT      O29672   0.915   6.346   0.614
 9757WAT     H129673   0.929   6.367   0.521
 9757WAT     H229674   0.853   6.273   0.613
 9758WAT      O29675   0.170   2.062   1.741
 9758WAT     H129676   0.236   2.035   1.678
 9758WAT     H229677   0.176   2.157   1.744
 9759WAT      O29678   2.441   3.270   6.084
 9759WAT     H129679   2.446   3.306   6.173
 9759WAT     H229680   2.364   3.213   6.085
 9760WAT      O29681   2.190   5.807   3.901
 9760WAT     H129682   2.164   5.717   3.883
 9760WAT     H229683   2.266   5.799   3.958
 9761WAT      O29684   2.430   5.745   4.125
 9761WAT     H129685   2.467   5.775   4.042
 9761WAT     H229686   2.457   5.653   4.131
 9762WAT      O29687   1.835   3.499   0.216
 9762WAT     H129688   1.867   3.505   0.306
 9762WAT     H229689   1.888   3.561   0.167
 9763WAT      O29690   3.717   4.494   0.043
 9763WAT     H129691   3.665   4.569   0.069
 9763WAT     H229692   3.805   4.514   0.075
 9764WAT      O29693   0.817   1.709   0.015
 9764WAT     H129694   0.725   1.729  -0.005
 9764WAT     H229695   0.818   1.614   0.026
 9765WAT      O29696   1.233   0.104   4.093
 9765WAT     H129697   1.251   0.165   4.021
 9765WAT     H229698   1.161   0.145   4.141
 9766WAT      O29699   6.511   5.892   1.838
 9766WAT     H129700   6.505   5.914   1.931
 9766WAT     H229701   6.443   5.827   1.824
 9767WAT      O29702   6.008   2.613   3.852
 9767WAT     H129703   5.983   2.701   3.825
 9767WAT     H229704   5.974   2.605   3.942
 9768WAT      O29705   3.208   3.150   2.632
 9768WAT     H129706   3.173   3.064   2.610
 9768WAT     H229707   3.147   3.186   2.697
 9769WAT      O29708   4.663   1.766   3.195
 9769WAT     H129709   4.576   1.788   3.160
 9769WAT     H229710   4.721   1.830   3.153
 9770WAT      O29711   3.142   1.799   1.098
 9770WAT     H129712   3.106   1.833   1.016
 9770WAT     H229713   3.065   1.780   1.151
 9771WAT      O29714   2.880   4.746   1.603
 9771WAT     H129715   2.807   4.765   1.544
 9771WAT     H229716   2.838   4.728   1.688
 9772WAT      O29717   0.057   3.782   1.976
 9772WAT     H129718  -0.024   3.829   1.957
 9772WAT     H229719   0.029   3.700   2.017
 9773WAT      O29720   1.890   1.788   1.287
 9773WAT     H129721   1.935   1.863   1.325
 9773WAT     H229722   1.901   1.798   1.193
 9774WAT      O29723   6.178   6.289   2.276
 9774WAT     H129724   6.250   6.284   2.338
 9774WAT     H229725   6.134   6.372   2.297
 9775WAT      O29726   5.041   2.446   1.816
 9775WAT     H129727   4.984   2.460   1.740
 9775WAT     H229728   5.095   2.371   1.792
 9776WAT      O29729   4.927   0.263   1.732
 9776WAT     H129730   4.988   0.194   1.758
 9776WAT     H229731   4.844   0.218   1.715
 9777WAT      O29732   4.982   5.144   4.656
 9777WAT     H129733   4.920   5.209   4.621
 9777WAT     H229734   5.048   5.136   4.588
 9778WAT      O29735   4.115   4.929   1.801
 9778WAT     H129736   4.160   4.998   1.850
 9778WAT     H229737   4.024   4.960   1.795
 9779WAT      O29738   5.074   5.178   2.745
 9779WAT     H129739   5.127   5.258   2.743
 9779WAT     H229740   5.089   5.138   2.659
 9780WAT      O29741   7.546   2.952   1.544
 9780WAT     H129742   7.604   2.986   1.476
 9780WAT     H229743   7.566   2.859   1.549
 9781WAT      O29744   5.532   3.250   4.126
 9781WAT     H129745   5.626   3.247   4.112
 9781WAT     H229746   5.494   3.203   4.052
 9782WAT      O29747   4.989   4.788   2.316
 9782WAT     H129748   4.945   4.840   2.249
 9782WAT     H229749   5.028   4.715   2.267
 9783WAT      O29750   6.765   2.592   2.696
 9783WAT     H129751   6.695   2.613   2.634
 9783WAT     H229752   6.799   2.677   2.724
 9784WAT      O29753   6.805   1.449   5.615
 9784WAT     H129754   6.732   1.507   5.636
 9784WAT     H229755   6.843   1.486   5.536
 9785WAT      O29756   3.845   3.829   3.360
 9785WAT     H129757   3.849   3.745   3.407
 9785WAT     H229758   3.927   3.873   3.385
 9786WAT      O29759   1.541   3.030   4.118
 9786WAT     H129760   1.561   2.985   4.200
 9786WAT     H229761   1.559   2.965   4.049
 9787WAT      O29762   4.024   0.262   1.999
 9787WAT     H129763   4.034   0.338   1.941
 9787WAT     H229764   4.111   0.224   2.005
 9788WAT      O29765   5.025   3.224   0.985
 9788WAT     H129766   4.953   3.277   1.017
 9788WAT     H229767   5.020   3.230   0.890
 9789WAT      O29768   5.604   5.368   1.379
 9789WAT     H129769   5.509   5.378   1.387
 9789WAT     H229770   5.633   5.449   1.336
 9790WAT      O29771   0.978   2.213   1.318
 9790WAT     H129772   1.010   2.151   1.383
 9790WAT     H229773   0.912   2.264   1.363
 9791WAT      O29774   4.074   1.822   5.317
 9791WAT     H129775   4.056   1.763   5.244
 9791WAT     H229776   4.060   1.910   5.281
 9792WAT      O29777   7.232   2.285   0.746
 9792WAT     H129778   7.188   2.367   0.723
 9792WAT     H229779   7.232   2.234   0.664
 9793WAT      O29780   5.917   1.196   0.136
 9793WAT     H129781   6.009   1.187   0.160
 9793WAT     H229782   5.919   1.212   0.042
 9794WAT      O29783   1.535   4.285   1.671
 9794WAT     H129784   1.547   4.198   1.632
 9794WAT     H229785   1.570   4.345   1.606
 9795WAT      O29786   7.333   2.096   5.378
 9795WAT     H129787   7.302   2.146   5.454
 9795WAT     H229788   7.284   2.014   5.380
 9796WAT      O29789   0.571   5.982   2.348
 9796WAT     H129790   0.631   5.909   2.355
 9796WAT     H229791   0.576   6.010   2.256
 9797WAT      O29792   5.202   6.884   2.525
 9797WAT     H129793   5.151   6.803   2.532
 9797WAT     H229794   5.215   6.896   2.431
 9798WAT      O29795   6.953   2.648   1.061
 9798WAT     H129796   6.945   2.552   1.064
 9798WAT     H229797   6.872   2.680   1.100
 9799WAT      O29798   0.432   0.110   0.069
 9799WAT     H129799   0.348   0.070   0.047
 9799WAT     H229800   0.495   0.038   0.066
 9800WAT      O29801   4.507   1.309   3.077
 9800WAT     H129802   4.519   1.316   2.982
 9800WAT     H229803   4.582   1.357   3.114
 9801WAT      O29804   6.691   2.780   1.237
 9801WAT     H129805   6.640   2.842   1.289
 9801WAT     H229806   6.630   2.749   1.170
 9802WAT      O29807   7.317   4.187   5.644
 9802WAT     H129808   7.397   4.151   5.606
 9802WAT     H229809   7.263   4.110   5.664
 9803WAT      O29810   6.678   5.415   5.397
 9803WAT     H129811   6.617   5.485   5.418
 9803WAT     H229812   6.743   5.417   5.467
 9804WAT      O29813   0.021   2.505   0.667
 9804WAT     H129814  -0.048   2.495   0.601
 9804WAT     H229815  -0.018   2.560   0.734
 9805WAT      O29816   6.733   4.425   0.320
 9805WAT     H129817   6.653   4.456   0.361
 9805WAT     H229818   6.786   4.504   0.308
 9806WAT      O29819   4.138   5.474   3.128
 9806WAT     H129820   4.094   5.460   3.045
 9806WAT     H229821   4.147   5.386   3.165
 9807WAT      O29822   4.172   2.548   4.537
 9807WAT     H129823   4.189   2.631   4.494
 9807WAT     H229824   4.098   2.565   4.596
 9808WAT      O29825   3.913   2.972   0.789
 9808WAT     H129826   3.865   2.958   0.707
 9808WAT     H229827   3.990   3.024   0.764
 9809WAT      O29828   6.085   4.617   4.692
 9809WAT     H129829   6.004   4.632   4.643
 9809WAT     H229830   6.071   4.533   4.736
 9810WAT      O29831   4.918   2.721   2.351
 9810WAT     H129832   5.001   2.747   2.312
 9810WAT     H229833   4.851   2.762   2.296
 9811WAT      O29834   7.341   6.196   4.928
 9811WAT     H129835   7.261   6.200   4.980
 9811WAT     H229836   7.317   6.235   4.844
 9812WAT      O29837   4.092   0.322   0.396
 9812WAT     H129838   4.078   0.229   0.381
 9812WAT     H229839   4.064   0.337   0.486
 9813WAT      O29840   6.712   3.312   1.759
 9813WAT     H129841   6.716   3.273   1.672
 9813WAT     H229842   6.724   3.406   1.744
 9814WAT      O29843   5.554   6.957   0.318
 9814WAT     H129844   5.611   6.956   0.395
 9814WAT     H229845   5.494   7.030   0.333
 9815WAT      O29846   5.091   3.532   2.493
 9815WAT     H129847   5.117   3.491   2.411
 9815WAT     H229848   5.136   3.616   2.494
 9816WAT      O29849   4.914   5.101   1.516
 9816WAT     H129850   4.988   5.143   1.472
 9816WAT     H229851   4.869   5.053   1.447
 9817WAT      O29852   1.925   1.996   2.041
 9817WAT     H129853   1.880   1.947   1.972
 9817WAT     H229854   1.860   2.059   2.072
 9818WAT      O29855   0.462   5.939   3.919
 9818WAT     H129856   0.369   5.922   3.909
 9818WAT     H229857   0.486   5.894   4.000
 9819WAT      O29858   5.742   0.366   0.218
 9819WAT     H129859   5.764   0.276   0.198
 9819WAT     H229860   5.727   0.407   0.133
 9820WAT      O29861   6.792   2.222   2.705
 9820WAT     H129862   6.698   2.207   2.716
 9820WAT     H229863   6.804   2.316   2.719
 9821WAT      O29864   5.549   2.500   5.902
 9821WAT     H129865   5.591   2.419   5.929
 9821WAT     H229866   5.622   2.559   5.883
 9822WAT      O29867   1.470   4.595   5.772
 9822WAT     H129868   1.399   4.531   5.781
 9822WAT     H229869   1.508   4.577   5.686
 9823WAT      O29870   1.607   4.643   3.494
 9823WAT     H129871   1.578   4.634   3.403
 9823WAT     H229872   1.534   4.609   3.546
 9824WAT      O29873   5.205   2.760   3.187
 9824WAT     H129874   5.175   2.679   3.146
 9824WAT     H229875   5.251   2.732   3.266
 9825WAT      O29876   5.507   4.847   1.299
 9825WAT     H129877   5.500   4.936   1.264
 9825WAT     H229878   5.598   4.841   1.329
 9826WAT      O29879   6.401   4.275   4.046
 9826WAT     H129880   6.484   4.322   4.044
 9826WAT     H229881   6.334   4.342   4.031
 9827WAT      O29882   4.219   6.407   3.303
 9827WAT     H129883   4.148   6.358   3.261
 9827WAT     H229884   4.246   6.471   3.237
 9828WAT      O29885   4.094   0.594   4.340
 9828WAT     H129886   4.080   0.499   4.348
 9828WAT     H229887   4.175   0.602   4.289
 9829WAT      O29888   1.941   6.096   5.500
 9829WAT     H129889   1.975   6.018   5.543
 9829WAT     H229890   2.018   6.153   5.490
 9830WAT      O29891   6.275   1.449   2.632
 9830WAT     H129892   6.234   1.394   2.699
 9830WAT     H229893   6.202   1.498   2.594
 9831WAT      O29894   3.992   6.297   4.139
 9831WAT     H129895   3.936   6.367   4.105
 9831WAT     H229896   4.081   6.324   4.115
 9832WAT      O29897   5.089   5.955   1.475
 9832WAT     H129898   5.154   5.968   1.545
 9832WAT     H229899   5.141   5.936   1.397
 9833WAT      O29900   0.162   7.143   2.250
 9833WAT     H129901   0.237   7.103   2.206
 9833WAT     H229902   0.093   7.077   2.245
 9834WAT      O29903   7.276   6.222   5.432
 9834WAT     H129904   7.217   6.223   5.508
 9834WAT     H229905   7.299   6.130   5.420
 9835WAT      O29906   5.545   6.620   0.533
 9835WAT     H129907   5.513   6.618   0.443
 9835WAT     H229908   5.639   6.636   0.525
 9836WAT      O29909   0.323   1.294   2.254
 9836WAT     H129910   0.228   1.286   2.243
 9836WAT     H229911   0.359   1.217   2.210
 9837WAT      O29912   3.381   4.645   5.333
 9837WAT     H129913   3.399   4.646   5.239
 9837WAT     H229914   3.435   4.575   5.368
 9838WAT      O29915   7.062   3.187   1.986
 9838WAT     H129916   7.031   3.113   2.038
 9838WAT     H229917   6.983   3.237   1.967
 9839WAT      O29918   3.754   4.447   3.237
 9839WAT     H129919   3.832   4.392   3.248
 9839WAT     H229920   3.718   4.455   3.325
 9840WAT      O29921   4.425   4.250   4.823
 9840WAT     H129922   4.347   4.305   4.818
 9840WAT     H229923   4.495   4.304   4.786
 9841WAT      O29924   4.088   4.171   4.440
 9841WAT     H129925   4.163   4.152   4.497
 9841WAT     H229926   4.047   4.085   4.425
 9842WAT      O29927   6.146   0.658   1.847
 9842WAT     H129928   6.226   0.629   1.803
 9842WAT     H229929   6.075   0.609   1.804
 9843WAT      O29930   2.416   5.385   5.265
 9843WAT     H129931   2.398   5.478   5.252
 9843WAT     H229932   2.506   5.373   5.236
 9844WAT      O29933   7.131   4.406   1.287
 9844WAT     H129934   7.042   4.440   1.284
 9844WAT     H229935   7.173   4.443   1.209
 9845WAT      O29936   3.469   0.400   1.458
 9845WAT     H129937   3.380   0.364   1.456
 9845WAT     H229938   3.491   0.413   1.366
 9846WAT      O29939   1.559   6.643   5.243
 9846WAT     H129940   1.558   6.587   5.320
 9846WAT     H229941   1.590   6.586   5.172
 9847WAT      O29942   3.750   2.931   0.553
 9847WAT     H129943   3.689   2.914   0.625
 9847WAT     H229944   3.696   2.973   0.486
 9848WAT      O29945   6.553   0.024   1.885
 9848WAT     H129946   6.486   0.072   1.837
 9848WAT     H229947   6.625   0.014   1.822
 9849WAT      O29948   4.768   3.335   2.496
 9849WAT     H129949   4.801   3.363   2.411
 9849WAT     H229950   4.808   3.249   2.511
 9850WAT      O29951   2.696   6.220   4.640
 9850WAT     H129952   2.676   6.187   4.728
 9850WAT     H229953   2.631   6.178   4.584
 9851WAT      O29954   5.363   0.009   3.664
 9851WAT     H129955   5.382   0.048   3.579
 9851WAT     H229956   5.300   0.068   3.705
 9852WAT      O29957   3.452   7.062   6.029
 9852WAT     H129958   3.487   7.087   6.115
 9852WAT     H229959   3.380   7.002   6.049
 9853WAT      O29960   7.151   7.138   0.066
 9853WAT     H129961   7.235   7.178   0.087
 9853WAT     H229962   7.171   7.071   0.001
 9854WAT      O29963   0.602   6.495   3.154
 9854WAT     H129964   0.550   6.414   3.160
 9854WAT     H229965   0.601   6.517   3.061
 9855WAT      O29966   4.850   4.904   5.891
 9855WAT     H129967   4.858   4.994   5.861
 9855WAT     H229968   4.883   4.851   5.819
 9856WAT      O29969   5.333   4.925   4.779
 9856WAT     H129970   5.366   4.953   4.693
 9856WAT     H229971   5.238   4.916   4.767
 9857WAT      O29972   5.127   4.524   5.572
 9857WAT     H129973   5.198   4.583   5.597
 9857WAT     H229974   5.056   4.583   5.547
 9858WAT      O29975   1.892   2.207   1.446
 9858WAT     H129976   1.859   2.162   1.524
 9858WAT     H229977   1.814   2.234   1.398
 9859WAT      O29978   0.673   3.862   4.784
 9859WAT     H129979   0.638   3.903   4.705
 9859WAT     H229980   0.710   3.780   4.753
 9860WAT      O29981   2.321   6.989   0.625
 9860WAT     H129982   2.400   7.029   0.587
 9860WAT     H229983   2.353   6.911   0.670
 9861WAT      O29984   0.833   5.112   0.709
 9861WAT     H129985   0.837   5.078   0.798
 9861WAT     H229986   0.791   5.042   0.658
 9862WAT      O29987   0.682   4.979   5.186
 9862WAT     H129988   0.662   5.031   5.108
 9862WAT     H229989   0.674   4.888   5.157
 9863WAT      O29990   4.722   6.999   2.467
 9863WAT     H129991   4.651   7.046   2.511
 9863WAT     H229992   4.802   7.041   2.498
 9864WAT      O29993   2.035   5.593   0.963
 9864WAT     H129994   2.046   5.666   0.902
 9864WAT     H229995   2.042   5.515   0.909
 9865WAT      O29996   2.970   2.467   4.105
 9865WAT     H129997   3.013   2.540   4.059
 9865WAT     H229998   2.920   2.510   4.174
 9866WAT      O29999   1.237   6.397   4.961
 9866WAT     H130000   1.268   6.311   4.931
 9866WAT     H230001   1.262   6.457   4.891
 9867WAT      O30002   3.726   4.993   1.008
 9867WAT     H130003   3.637   5.022   0.990
 9867WAT     H230004   3.772   5.073   1.034
 9868WAT      O30005   1.320   0.098   3.146
 9868WAT     H130006   1.232   0.125   3.118
 9868WAT     H230007   1.333   0.013   3.105
 9869WAT      O30008   5.284   2.798   4.121
 9869WAT     H130009   5.331   2.853   4.059
 9869WAT     H230010   5.282   2.712   4.079
 9870WAT      O30011   5.484   1.910   2.832
 9870WAT     H130012   5.449   1.984   2.882
 9870WAT     H230013   5.577   1.907   2.856
 9871WAT      O30014   1.464   4.562   0.602
 9871WAT     H130015   1.423   4.595   0.522
 9871WAT     H230016   1.391   4.546   0.662
 9872WAT      O30017   4.919   6.680   3.947
 9872WAT     H130018   4.823   6.685   3.955
 9872WAT     H230019   4.945   6.769   3.923
 9873WAT      O30020   7.555   4.007   3.431
 9873WAT     H130021   7.483   4.036   3.374
 9873WAT     H230022   7.534   3.915   3.449
 9874WAT      O30023   3.796   0.085   1.135
 9874WAT     H130024   3.772   0.002   1.094
 9874WAT     H230025   3.775   0.151   1.069
 9875WAT      O30026   6.805   2.985   4.293
 9875WAT     H130027   6.778   3.028   4.374
 9875WAT     H230028   6.742   3.017   4.228
 9876WAT      O30029   0.218   1.028   1.605
 9876WAT     H130030   0.307   1.040   1.639
 9876WAT     H230031   0.168   1.099   1.645
 9877WAT      O30032   2.175   2.998   5.811
 9877WAT     H130033   2.152   2.997   5.718
 9877WAT     H230034   2.112   3.057   5.851
 9878WAT      O30035   6.618   5.929   0.309
 9878WAT     H130036   6.643   5.946   0.218
 9878WAT     H230037   6.622   6.015   0.351
 9879WAT      O30038   1.752   0.720   0.043
 9879WAT     H130039   1.756   0.624   0.050
 9879WAT     H230040   1.826   0.752   0.094
 9880WAT      O30041   2.355   7.146   2.196
 9880WAT     H130042   2.319   7.174   2.112
 9880WAT     H230043   2.278   7.128   2.250
 9881WAT      O30044   1.268   6.511   2.457
 9881WAT     H130045   1.225   6.499   2.373
 9881WAT     H230046   1.241   6.434   2.509
 9882WAT      O30047   0.890   5.148   5.703
 9882WAT     H130048   0.911   5.057   5.681
 9882WAT     H230049   0.798   5.146   5.729
 9883WAT      O30050   5.521   6.563   5.421
 9883WAT     H130051   5.448   6.507   5.444
 9883WAT     H230052   5.551   6.530   5.336
 9884WAT      O30053   0.516   2.559   3.021
 9884WAT     H130054   0.537   2.629   2.959
 9884WAT     H230055   0.437   2.518   2.985
 9885WAT      O30056   6.660   2.825   4.887
 9885WAT     H130057   6.636   2.918   4.889
 9885WAT     H230058   6.579   2.779   4.906
 9886WAT      O30059   6.497   2.519   2.688
 9886WAT     H130060   6.467   2.563   2.767
 9886WAT     H230061   6.522   2.431   2.718
 9887WAT      O30062   4.825   5.488   2.295
 9887WAT     H130063   4.838   5.453   2.207
 9887WAT     H230064   4.857   5.578   2.290
 9888WAT      O30065   4.891   3.042   4.270
 9888WAT     H130066   4.961   3.016   4.210
 9888WAT     H230067   4.817   3.065   4.214
 9889WAT      O30068   4.670   0.843   0.884
 9889WAT     H130069   4.729   0.837   0.809
 9889WAT     H230070   4.592   0.795   0.856
 9890WAT      O30071   1.076   2.243   5.142
 9890WAT     H130072   1.133   2.224   5.068
 9890WAT     H230073   1.012   2.171   5.143
 9891WAT      O30074   3.602   5.425   1.955
 9891WAT     H130075   3.514   5.387   1.963
 9891WAT     H230076   3.625   5.411   1.864
 9892WAT      O30077   4.233   6.803   1.682
 9892WAT     H130078   4.140   6.826   1.678
 9892WAT     H230079   4.274   6.859   1.615
 9893WAT      O30080   3.612   3.446   0.272
 9893WAT     H130081   3.624   3.471   0.180
 9893WAT     H230082   3.701   3.446   0.308
 9894WAT      O30083   1.915   0.785   2.229
 9894WAT     H130084   1.881   0.696   2.229
 9894WAT     H230085   1.959   0.794   2.144
 9895WAT      O30086   0.746   3.846   5.401
 9895WAT     H130087   0.825   3.873   5.353
 9895WAT     H230088   0.673   3.878   5.348
 9896WAT      O30089   0.434   4.638   5.394
 9896WAT     H130090   0.499   4.676   5.336
 9896WAT     H230091   0.410   4.555   5.353
 9897WAT      O30092   2.414   5.028   1.188
 9897WAT     H130093   2.393   5.045   1.280
 9897WAT     H230094   2.487   4.966   1.191
 9898WAT      O30095   6.694   6.689   3.298
 9898WAT     H130096   6.771   6.684   3.241
 9898WAT     H230097   6.621   6.705   3.238
 9899WAT      O30098   3.271   0.642   1.251
 9899WAT     H130099   3.350   0.636   1.305
 9899WAT     H230100   3.273   0.732   1.216
 9900WAT      O30101   1.194   1.448   3.521
 9900WAT     H130102   1.249   1.520   3.492
 9900WAT     H230103   1.182   1.394   3.442
 9901WAT      O30104   2.276   2.061   3.244
 9901WAT     H130105   2.312   2.086   3.159
 9901WAT     H230106   2.189   2.027   3.223
 9902WAT      O30107   3.906   5.852   0.846
 9902WAT     H130108   3.991   5.812   0.826
 9902WAT     H230109   3.925   5.945   0.860
 9903WAT      O30110   7.053   2.718   2.084
 9903WAT     H130111   7.081   2.629   2.106
 9903WAT     H230112   7.026   2.714   1.993
 9904WAT      O30113   6.191   6.438   5.629
 9904WAT     H130114   6.284   6.419   5.613
 9904WAT     H230115   6.144   6.379   5.570
 9905WAT      O30116   5.841   5.628   3.232
 9905WAT     H130117   5.793   5.548   3.210
 9905WAT     H230118   5.777   5.684   3.276
 9906WAT      O30119   5.335   0.401   1.642
 9906WAT     H130120   5.273   0.410   1.570
 9906WAT     H230121   5.418   0.431   1.606
 9907WAT      O30122   5.443   0.112   4.592
 9907WAT     H130123   5.450   0.019   4.612
 9907WAT     H230124   5.367   0.142   4.643
 9908WAT      O30125   4.778   5.912   6.016
 9908WAT     H130126   4.770   5.908   5.921
 9908WAT     H230127   4.688   5.905   6.048
 9909WAT      O30128   2.809   6.474   3.389
 9909WAT     H130129   2.741   6.516   3.442
 9909WAT     H230130   2.785   6.495   3.298
 9910WAT      O30131   6.907   6.006   2.475
 9910WAT     H130132   6.882   6.014   2.383
 9910WAT     H230133   7.003   5.997   2.473
 9911WAT      O30134   4.524   2.980   3.693
 9911WAT     H130135   4.525   3.035   3.615
 9911WAT     H230136   4.607   3.000   3.737
 9912WAT      O30137   2.696   4.994   4.868
 9912WAT     H130138   2.768   4.949   4.825
 9912WAT     H230139   2.674   5.066   4.810
 9913WAT      O30140   2.547   6.721   0.925
 9913WAT     H130141   2.626   6.732   0.871
 9913WAT     H230142   2.475   6.717   0.861
 9914WAT      O30143   3.768   3.912   2.669
 9914WAT     H130144   3.673   3.910   2.659
 9914WAT     H230145   3.789   3.836   2.724
 9915WAT      O30146   3.125   2.382   1.051
 9915WAT     H130147   3.126   2.441   1.126
 9915WAT     H230148   3.136   2.440   0.975
 9916WAT      O30149   7.597   5.379   6.169
 9916WAT     H130150   7.534   5.307   6.170
 9916WAT     H230151   7.544   5.458   6.181
 9917WAT      O30152   0.809   1.014   2.736
 9917WAT     H130153   0.754   1.091   2.724
 9917WAT     H230154   0.880   1.025   2.673
 9918WAT      O30155   4.041   6.487   1.588
 9918WAT     H130156   3.977   6.540   1.540
 9918WAT     H230157   4.074   6.424   1.523
 9919WAT      O30158   4.660   6.344   2.543
 9919WAT     H130159   4.571   6.309   2.548
 9919WAT     H230160   4.682   6.343   2.450
 9920WAT      O30161   5.593   6.097   0.217
 9920WAT     H130162   5.597   6.021   0.159
 9920WAT     H230163   5.516   6.146   0.187
 9921WAT      O30164   3.425   1.764   3.783
 9921WAT     H130165   3.517   1.755   3.807
 9921WAT     H230166   3.415   1.710   3.704
 9922WAT      O30167   5.782   3.646   4.712
 9922WAT     H130168   5.785   3.559   4.673
 9922WAT     H230169   5.869   3.682   4.697
 9923WAT      O30170   0.892   0.736   2.866
 9923WAT     H130171   0.899   0.668   2.798
 9923WAT     H230172   0.858   0.812   2.819
 9924WAT      O30173   2.173   0.908   0.564
 9924WAT     H130174   2.158   0.993   0.523
 9924WAT     H230175   2.255   0.918   0.611
 9925WAT      O30176   5.697   2.365   5.116
 9925WAT     H130177   5.723   2.367   5.024
 9925WAT     H230178   5.601   2.368   5.113
 9926WAT      O30179   4.625   5.604   5.223
 9926WAT     H130180   4.646   5.545   5.295
 9926WAT     H230181   4.618   5.548   5.146
 9927WAT      O30182   0.421   4.358   3.491
 9927WAT     H130183   0.512   4.380   3.469
 9927WAT     H230184   0.418   4.262   3.486
 9928WAT      O30185   3.316   2.148   1.257
 9928WAT     H130186   3.346   2.057   1.263
 9928WAT     H230187   3.329   2.171   1.165
 9929WAT      O30188   0.947   3.485   5.889
 9929WAT     H130189   0.962   3.466   5.982
 9929WAT     H230190   0.854   3.466   5.875
 9930WAT      O30191   5.230   3.755   2.580
 9930WAT     H130192   5.145   3.796   2.590
 9930WAT     H230193   5.286   3.798   2.645
 9931WAT      O30194   6.380   0.976   3.404
 9931WAT     H130195   6.421   1.015   3.327
 9931WAT     H230196   6.306   0.927   3.370
 9932WAT      O30197   3.415   0.995   2.421
 9932WAT     H130198   3.436   1.085   2.448
 9932WAT     H230199   3.373   1.005   2.336
 9933WAT      O30200   4.416   4.811   5.500
 9933WAT     H130201   4.395   4.881   5.438
 9933WAT     H230202   4.428   4.733   5.446
 9934WAT      O30203   5.668   6.820   4.333
 9934WAT     H130204   5.654   6.734   4.293
 9934WAT     H230205   5.639   6.882   4.266
 9935WAT      O30206   1.309   6.850   0.683
 9935WAT     H130207   1.364   6.827   0.608
 9935WAT     H230208   1.347   6.931   0.717
 9936WAT      O30209   1.406   5.982   0.937
 9936WAT     H130210   1.389   6.068   0.899
 9936WAT     H230211   1.500   5.969   0.927
 9937WAT      O30212   7.057   0.713   3.666
 9937WAT     H130213   7.121   0.676   3.606
 9937WAT     H230214   7.087   0.685   3.753
 9938WAT      O30215   3.789   5.468   4.064
 9938WAT     H130216   3.763   5.377   4.077
 9938WAT     H230217   3.862   5.481   4.125
 9939WAT      O30218   1.204   4.536   4.441
 9939WAT     H130219   1.200   4.528   4.537
 9939WAT     H230220   1.273   4.601   4.426
 9940WAT      O30221   6.842   3.218   3.715
 9940WAT     H130222   6.893   3.138   3.726
 9940WAT     H230223   6.860   3.269   3.794
 9941WAT      O30224   0.611   1.765   2.235
 9941WAT     H130225   0.691   1.754   2.184
 9941WAT     H230226   0.559   1.688   2.214
 9942WAT      O30227   4.123   3.785   1.816
 9942WAT     H130228   4.105   3.879   1.828
 9942WAT     H230229   4.086   3.764   1.730
 9943WAT      O30230   2.614   6.599   1.859
 9943WAT     H130231   2.621   6.641   1.773
 9943WAT     H230232   2.688   6.538   1.861
 9944WAT      O30233   6.581   0.588   2.854
 9944WAT     H130234   6.654   0.617   2.908
 9944WAT     H230235   6.553   0.505   2.893
 9945WAT      O30236   4.497   0.834   4.074
 9945WAT     H130237   4.447   0.832   4.156
 9945WAT     H230238   4.581   0.794   4.097
 9946WAT      O30239   2.441   3.334   4.947
 9946WAT     H130240   2.471   3.374   4.866
 9946WAT     H230241   2.352   3.305   4.928
 9947WAT      O30242   2.478   1.038   2.579
 9947WAT     H130243   2.454   0.945   2.573
 9947WAT     H230244   2.558   1.039   2.632
 9948WAT      O30245   3.505   2.656   5.567
 9948WAT     H130246   3.542   2.739   5.536
 9948WAT     H230247   3.505   2.600   5.490
 9949WAT      O30248   0.476   0.324   3.984
 9949WAT     H130249   0.530   0.397   3.954
 9949WAT     H230250   0.405   0.319   3.921
 9950WAT      O30251   3.092   3.076   5.575
 9950WAT     H130252   3.003   3.058   5.544
 9950WAT     H230253   3.088   3.164   5.611
 9951WAT      O30254   5.588   3.508   1.551
 9951WAT     H130255   5.544   3.441   1.499
 9951WAT     H230256   5.609   3.577   1.488
 9952WAT      O30257   2.446   5.032   5.030
 9952WAT     H130258   2.434   5.122   5.001
 9952WAT     H230259   2.510   4.996   4.968
 9953WAT      O30260   4.071   3.432   0.692
 9953WAT     H130261   4.097   3.450   0.602
 9953WAT     H230262   3.977   3.449   0.695
 9954WAT      O30263   5.471   3.314   3.834
 9954WAT     H130264   5.534   3.385   3.848
 9954WAT     H230265   5.473   3.297   3.740
 9955WAT      O30266   1.881   0.565   1.409
 9955WAT     H130267   1.855   0.653   1.382
 9955WAT     H230268   1.941   0.536   1.340
 9956WAT      O30269   3.723   2.617   1.171
 9956WAT     H130270   3.704   2.600   1.079
 9956WAT     H230271   3.740   2.711   1.175
 9957WAT      O30272   3.558   2.396   1.797
 9957WAT     H130273   3.486   2.412   1.735
 9957WAT     H230274   3.532   2.444   1.876
 9958WAT      O30275   5.500   6.718   0.911
 9958WAT     H130276   5.418   6.768   0.904
 9958WAT     H230277   5.496   6.680   0.999
 9959WAT      O30278   6.797   0.155   3.587
 9959WAT     H130279   6.809   0.066   3.621
 9959WAT     H230280   6.746   0.143   3.507
 9960WAT      O30281   4.393   5.205   5.399
 9960WAT     H130282   4.341   5.243   5.470
 9960WAT     H230283   4.344   5.127   5.373
 9961WAT      O30284   5.662   3.784   3.734
 9961WAT     H130285   5.741   3.825   3.769
 9961WAT     H230286   5.599   3.856   3.725
 9962WAT      O30287   3.630   2.925   2.641
 9962WAT     H130288   3.657   2.913   2.550
 9962WAT     H230289   3.630   3.020   2.654
 9963WAT      O30290   4.984   1.378   4.152
 9963WAT     H130291   5.043   1.408   4.083
 9963WAT     H230292   5.032   1.309   4.198
 9964WAT      O30293   2.894   0.619   4.008
 9964WAT     H130294   2.866   0.570   4.085
 9964WAT     H230295   2.988   0.602   4.001
 9965WAT      O30296   2.168   5.959   6.048
 9965WAT     H130297   2.120   5.917   5.977
 9965WAT     H230298   2.259   5.930   6.035
 9966WAT      O30299   0.374   1.442   2.717
 9966WAT     H130300   0.398   1.420   2.626
 9966WAT     H230301   0.348   1.358   2.756
 9967WAT      O30302   0.085   6.225   3.108
 9967WAT     H130303   0.153   6.275   3.063
 9967WAT     H230304   0.024   6.291   3.140
 9968WAT      O30305   1.984   6.446   5.774
 9968WAT     H130306   2.050   6.378   5.788
 9968WAT     H230307   1.934   6.449   5.855
 9969WAT      O30308   5.264   2.630   5.262
 9969WAT     H130309   5.187   2.574   5.272
 9969WAT     H230310   5.249   2.677   5.180
 9970WAT      O30311   6.548   4.160   1.784
 9970WAT     H130312   6.497   4.188   1.709
 9970WAT     H230313   6.571   4.242   1.829
 9971WAT      O30314   3.224   5.273   2.356
 9971WAT     H130315   3.159   5.249   2.290
 9971WAT     H230316   3.283   5.198   2.360
 9972WAT      O30317   1.868   1.602   0.763
 9972WAT     H130318   1.846   1.521   0.716
 9972WAT     H230319   1.940   1.640   0.713
 9973WAT      O30320   5.787   3.314   5.269
 9973WAT     H130321   5.791   3.289   5.177
 9973WAT     H230322   5.709   3.271   5.303
 9974WAT      O30323   6.207   5.101   4.716
 9974WAT     H130324   6.188   5.178   4.770
 9974WAT     H230325   6.130   5.090   4.660
 9975WAT      O30326   2.169   3.062   4.536
 9975WAT     H130327   2.193   3.150   4.504
 9975WAT     H230328   2.077   3.052   4.511
 9976WAT      O30329   6.395   1.780   5.783
 9976WAT     H130330   6.372   1.776   5.875
 9976WAT     H230331   6.349   1.858   5.750
 9977WAT      O30332   1.748   5.929   5.419
 9977WAT     H130333   1.777   5.874   5.491
 9977WAT     H230334   1.812   6.000   5.416
 9978WAT      O30335   3.560   6.408   2.587
 9978WAT     H130336   3.625   6.381   2.521
 9978WAT     H230337   3.559   6.504   2.581
 9979WAT      O30338   5.715   5.632   5.273
 9979WAT     H130339   5.701   5.651   5.180
 9979WAT     H230340   5.637   5.582   5.299
 9980WAT      O30341   0.379   6.452   5.771
 9980WAT     H130342   0.303   6.468   5.827
 9980WAT     H230343   0.342   6.414   5.691
 9981WAT      O30344   0.492   4.859   4.495
 9981WAT     H130345   0.581   4.868   4.462
 9981WAT     H230346   0.445   4.935   4.459
 9982WAT      O30347   6.753   5.741   2.617
 9982WAT     H130348   6.824   5.733   2.553
 9982WAT     H230349   6.748   5.835   2.636
 9983WAT      O30350   4.990   0.526   2.039
 9983WAT     H130351   5.055   0.496   1.975
 9983WAT     H230352   4.908   0.487   2.008
 9984WAT      O30353   1.915   3.989   6.138
 9984WAT     H130354   2.006   3.961   6.135
 9984WAT     H230355   1.886   3.985   6.047
 9985WAT      O30356   2.845   5.693   1.177
 9985WAT     H130357   2.843   5.713   1.270
 9985WAT     H230358   2.789   5.616   1.167
 9986WAT      O30359   1.699   4.188   0.692
 9986WAT     H130360   1.713   4.122   0.760
 9986WAT     H230361   1.606   4.211   0.701
 9987WAT      O30362   5.534   3.955   5.065
 9987WAT     H130363   5.628   3.943   5.050
 9987WAT     H230364   5.504   3.869   5.095
 9988WAT      O30365   5.485   2.210   0.363
 9988WAT     H130366   5.497   2.294   0.319
 9988WAT     H230367   5.505   2.145   0.296
 9989WAT      O30368   7.630   2.416   5.060
 9989WAT     H130369   7.661   2.330   5.032
 9989WAT     H230370   7.551   2.431   5.009
 9990WAT      O30371   4.901   3.539   3.131
 9990WAT     H130372   4.996   3.537   3.145
 9990WAT     H230373   4.884   3.625   3.094
 9991WAT      O30374   4.978   6.631   1.366
 9991WAT     H130375   5.071   6.644   1.347
 9991WAT     H230376   4.968   6.656   1.458
 9992WAT      O30377   7.353   4.666   3.828
 9992WAT     H130378   7.403   4.641   3.907
 9992WAT     H230379   7.386   4.753   3.806
 9993WAT      O30380   2.772   6.679   6.111
 9993WAT     H130381   2.763   6.769   6.142
 9993WAT     H230382   2.684   6.654   6.083
 9994WAT      O30383   2.199   6.796   3.819
 9994WAT     H130384   2.269   6.854   3.787
 9994WAT     H230385   2.138   6.790   3.746
 9995WAT      O30386   1.629   4.595   4.760
 9995WAT     H130387   1.559   4.537   4.793
 9995WAT     H230388   1.678   4.619   4.839
 9996WAT      O30389   4.926   3.620   1.116
 9996WAT     H130390   4.854   3.683   1.120
 9996WAT     H230391   4.970   3.638   1.033
 9997WAT      O30392   2.566   4.249   1.229
 9997WAT     H130393   2.509   4.303   1.176
 9997WAT     H230394   2.554   4.160   1.194
 9998WAT      O30395   4.105   7.175   0.138
 9998WAT     H130396   4.174   7.198   0.075
 9998WAT     H230397   4.116   7.081   0.152
 9999WAT      O30398   2.725   3.220   2.437
 9999WAT     H130399   2.730   3.297   2.381
 9999WAT     H230400   2.774   3.244   2.516
10000WAT      O30401   6.304   3.975   2.287
10000WAT     H130402   6.360   3.899   2.274
10000WAT     H230403   6.330   4.036   2.218
10001WAT      O30404   6.169   3.550   4.345
10001WAT     H130405   6.151   3.633   4.302
10001WAT     H230406   6.264   3.540   4.339
10002WAT      O30407   1.277   4.385   4.682
10002WAT     H130408   1.317   4.326   4.619
10002WAT     H230409   1.348   4.410   4.740
10003WAT      O30410   5.098   3.757   4.799
10003WAT     H130411   5.145   3.839   4.817
10003WAT     H230412   5.145   3.691   4.849
10004WAT      O30413   4.577   6.849   0.916
10004WAT     H130414   4.630   6.897   0.852
10004WAT     H230415   4.639   6.790   0.959
10005WAT      O30416   6.537   5.044   0.077
10005WAT     H130417   6.494   5.018  -0.005
10005WAT     H230418   6.630   5.029   0.060
10006WAT      O30419   5.342   0.331   2.014
10006WAT     H130420   5.327   0.259   1.954
10006WAT     H230421   5.309   0.408   1.967
10007WAT      O30422   0.899   6.739   2.066
10007WAT     H130423   0.916   6.805   2.133
10007WAT     H230424   0.980   6.688   2.061
10008WAT      O30425   0.704   0.903   3.442
10008WAT     H130426   0.701   0.903   3.346
10008WAT     H230427   0.751   0.983   3.464
10009WAT      O30428   3.241   3.790   2.040
10009WAT     H130429   3.202   3.735   2.108
10009WAT     H230430   3.171   3.801   1.976
10010WAT      O30431   5.405   1.573   3.664
10010WAT     H130432   5.474   1.533   3.610
10010WAT     H230433   5.420   1.538   3.752
10011WAT      O30434   5.113   7.198   5.165
10011WAT     H130435   5.155   7.115   5.189
10011WAT     H230436   5.182   7.248   5.123
10012WAT      O30437   0.787   6.491   1.025
10012WAT     H130438   0.725   6.461   0.959
10012WAT     H230439   0.807   6.581   1.000
10013WAT      O30440   2.134   4.923   0.768
10013WAT     H130441   2.162   4.914   0.860
10013WAT     H230442   2.207   4.887   0.718
10014WAT      O30443   6.528   6.841   2.535
10014WAT     H130444   6.603   6.848   2.476
10014WAT     H230445   6.558   6.881   2.617
10015WAT      O30446   5.142   5.093   0.752
10015WAT     H130447   5.108   5.009   0.720
10015WAT     H230448   5.132   5.088   0.847
10016WAT      O30449   1.918   6.335   2.412
10016WAT     H130450   1.949   6.385   2.488
10016WAT     H230451   1.843   6.386   2.379
10017WAT      O30452   2.358   0.898   3.512
10017WAT     H130453   2.280   0.953   3.523
10017WAT     H230454   2.431   0.958   3.526
10018WAT      O30455   5.733   0.619   5.986
10018WAT     H130456   5.643   0.652   5.989
10018WAT     H230457   5.780   0.670   6.053
10019WAT      O30458   7.316   6.796   5.220
10019WAT     H130459   7.262   6.863   5.178
10019WAT     H230460   7.267   6.772   5.298
10020WAT      O30461   6.509   4.776   0.234
10020WAT     H130462   6.542   4.731   0.157
10020WAT     H230463   6.585   4.821   0.271
10021WAT      O30464   2.391   0.913   1.479
10021WAT     H130465   2.401   0.982   1.412
10021WAT     H230466   2.461   0.931   1.542
10022WAT      O30467   3.014   6.537   2.884
10022WAT     H130468   3.019   6.512   2.792
10022WAT     H230469   3.000   6.454   2.930
10023WAT      O30470   5.335   2.977   4.831
10023WAT     H130471   5.371   2.913   4.770
10023WAT     H230472   5.325   3.057   4.780
10024WAT      O30473   3.572   4.611   2.711
10024WAT     H130474   3.621   4.529   2.716
10024WAT     H230475   3.538   4.624   2.800
10025WAT      O30476   1.293   0.076   2.297
10025WAT     H130477   1.200   0.058   2.310
10025WAT     H230478   1.305   0.076   2.202
10026WAT      O30479   5.102   1.288   5.287
10026WAT     H130480   5.128   1.288   5.195
10026WAT     H230481   5.049   1.210   5.297
10027WAT      O30482   2.098   6.430   1.212
10027WAT     H130483   2.004   6.445   1.200
10027WAT     H230484   2.140   6.490   1.150
10028WAT      O30485   0.441   1.090   6.144
10028WAT     H130486   0.345   1.087   6.141
10028WAT     H230487   0.464   1.058   6.231
10029WAT      O30488   3.445   5.931   2.439
10029WAT     H130489   3.412   5.866   2.377
10029WAT     H230490   3.375   5.996   2.446
10030WAT      O30491   6.083   6.892   2.753
10030WAT     H130492   5.991   6.867   2.761
10030WAT     H230493   6.088   6.941   2.671
10031WAT      O30494   4.652   5.687   3.987
10031WAT     H130495   4.718   5.697   3.918
10031WAT     H230496   4.569   5.701   3.942
10032WAT      O30497   0.673   0.889   0.548
10032WAT     H130498   0.641   0.979   0.557
10032WAT     H230499   0.673   0.872   0.454
10033WAT      O30500   4.550   3.806   6.207
10033WAT     H130501   4.490   3.758   6.149
10033WAT     H230502   4.521   3.897   6.201
10034WAT      O30503   3.911   5.688   2.147
10034WAT     H130504   3.827   5.646   2.125
10034WAT     H230505   3.895   5.782   2.132
10035WAT      O30506   0.771   2.049   6.101
10035WAT     H130507   0.816   2.064   6.018
10035WAT     H230508   0.819   2.102   6.164
10036WAT      O30509   1.567   6.965   1.915
10036WAT     H130510   1.500   6.902   1.939
10036WAT     H230511   1.519   7.047   1.903
10037WAT      O30512   2.937   3.642   4.740
10037WAT     H130513   2.901   3.596   4.664
10037WAT     H230514   3.028   3.662   4.715
10038WAT      O30515   2.482   0.731   1.869
10038WAT     H130516   2.525   0.794   1.811
10038WAT     H230517   2.401   0.708   1.824
10039WAT      O30518   6.721   3.527   5.980
10039WAT     H130519   6.631   3.505   5.957
10039WAT     H230520   6.773   3.453   5.947
10040WAT      O30521   0.233   6.560   3.618
10040WAT     H130522   0.241   6.632   3.681
10040WAT     H230523   0.299   6.580   3.551
10041WAT      O30524   6.348   5.970   2.498
10041WAT     H130525   6.258   5.943   2.478
10041WAT     H230526   6.353   6.060   2.465
10042WAT      O30527   2.574   2.982   4.005
10042WAT     H130528   2.626   3.051   3.964
10042WAT     H230529   2.547   3.020   4.089
10043WAT      O30530   6.854   2.899   4.635
10043WAT     H130531   6.835   2.978   4.587
10043WAT     H230532   6.774   2.846   4.628
10044WAT      O30533   2.420   0.371   5.202
10044WAT     H130534   2.473   0.370   5.122
10044WAT     H230535   2.362   0.296   5.193
10045WAT      O30536   2.976   0.208   4.281
10045WAT     H130537   2.936   0.123   4.298
10045WAT     H230538   3.020   0.231   4.364
10046WAT      O30539   3.230   2.477   4.375
10046WAT     H130540   3.209   2.386   4.356
10046WAT     H230541   3.146   2.517   4.395
10047WAT      O30542   4.281   7.140   5.205
10047WAT     H130543   4.282   7.100   5.292
10047WAT     H230544   4.355   7.101   5.159
10048WAT      O30545   4.628   3.195   3.527
10048WAT     H130546   4.700   3.216   3.586
10048WAT     H230547   4.642   3.251   3.450
10049WAT      O30548   4.113   6.377   4.873
10049WAT     H130549   4.019   6.393   4.881
10049WAT     H230550   4.133   6.312   4.940
10050WAT      O30551   1.670   2.520   1.445
10050WAT     H130552   1.640   2.431   1.424
10050WAT     H230553   1.640   2.573   1.372
10051WAT      O30554   3.129   1.389   3.834
10051WAT     H130555   3.107   1.483   3.830
10051WAT     H230556   3.152   1.365   3.745
10052WAT      O30557   0.332   3.084   5.893
10052WAT     H130558   0.244   3.098   5.857
10052WAT     H230559   0.320   3.084   5.987
10053WAT      O30560   3.186   2.458   2.724
10053WAT     H130561   3.091   2.469   2.727
10053WAT     H230562   3.218   2.501   2.803
10054WAT      O30563   2.610   3.187   3.416
10054WAT     H130564   2.567   3.272   3.426
10054WAT     H230565   2.621   3.175   3.322
10055WAT      O30566   2.985   0.740   3.614
10055WAT     H130567   3.045   0.711   3.682
10055WAT     H230568   3.040   0.753   3.537
10056WAT      O30569   0.101   5.895   5.243
10056WAT     H130570   0.035   5.862   5.181
10056WAT     H230571   0.114   5.822   5.304
10057WAT      O30572   3.444   6.655   0.614
10057WAT     H130573   3.365   6.606   0.590
10057WAT     H230574   3.424   6.746   0.590
10058WAT      O30575   3.052   7.031   4.655
10058WAT     H130576   3.104   7.073   4.724
10058WAT     H230577   2.985   6.981   4.703
10059WAT      O30578   2.386   1.436   0.456
10059WAT     H130579   2.465   1.478   0.488
10059WAT     H230580   2.391   1.444   0.361
10060WAT      O30581   6.523   0.625   2.483
10060WAT     H130582   6.471   0.617   2.403
10060WAT     H230583   6.554   0.537   2.501
10061WAT      O30584   3.394   2.150   5.779
10061WAT     H130585   3.397   2.100   5.860
10061WAT     H230586   3.326   2.109   5.727
10062WAT      O30587   1.554   0.112   3.797
10062WAT     H130588   1.640   0.069   3.798
10062WAT     H230589   1.541   0.139   3.888
10063WAT      O30590   0.738   4.623   2.371
10063WAT     H130591   0.768   4.710   2.398
10063WAT     H230592   0.796   4.598   2.299
10064WAT      O30593   6.082   3.275   3.377
10064WAT     H130594   6.114   3.258   3.288
10064WAT     H230595   6.067   3.369   3.380
10065WAT      O30596   0.240   6.605   1.082
10065WAT     H130597   0.311   6.663   1.053
10065WAT     H230598   0.266   6.518   1.052
10066WAT      O30599   5.392   2.973   5.369
10066WAT     H130600   5.461   2.911   5.344
10066WAT     H230601   5.317   2.948   5.315
10067WAT      O30602   3.818   0.838   4.323
10067WAT     H130603   3.731   0.803   4.303
10067WAT     H230604   3.869   0.763   4.352
10068WAT      O30605   3.572   6.771   2.716
10068WAT     H130606   3.559   6.694   2.770
10068WAT     H230607   3.543   6.744   2.629
10069WAT      O30608   1.308   6.949   1.098
10069WAT     H130609   1.253   7.009   1.048
10069WAT     H230610   1.258   6.867   1.101
10070WAT      O30611   6.060   3.266   5.253
10070WAT     H130612   6.078   3.349   5.210
10070WAT     H230613   5.965   3.265   5.265
10071WAT      O30614   6.855   4.278   1.638
10071WAT     H130615   6.853   4.183   1.634
10071WAT     H230616   6.863   4.298   1.731
10072WAT      O30617   5.289   6.590   0.686
10072WAT     H130618   5.383   6.604   0.676
10072WAT     H230619   5.253   6.610   0.599
10073WAT      O30620   7.342   0.523   4.382
10073WAT     H130621   7.394   0.457   4.428
10073WAT     H230622   7.376   0.523   4.293
10074WAT      O30623   2.410   5.776   0.784
10074WAT     H130624   2.378   5.859   0.748
10074WAT     H230625   2.400   5.786   0.879
10075WAT      O30626   1.134   5.874   4.417
10075WAT     H130627   1.070   5.903   4.352
10075WAT     H230628   1.216   5.917   4.390
10076WAT      O30629   5.472   5.337   4.078
10076WAT     H130630   5.382   5.348   4.047
10076WAT     H230631   5.515   5.287   4.008
10077WAT      O30632   6.835   0.245   2.936
10077WAT     H130633   6.748   0.282   2.947
10077WAT     H230634   6.870   0.237   3.025
10078WAT      O30635   6.648   6.695   2.304
10078WAT     H130636   6.722   6.738   2.262
10078WAT     H230637   6.571   6.742   2.272
10079WAT      O30638   7.202   4.220   6.055
10079WAT     H130639   7.155   4.136   6.062
10079WAT     H230640   7.164   4.261   5.977
10080WAT      O30641   6.296   6.048   1.327
10080WAT     H130642   6.319   5.956   1.309
10080WAT     H230643   6.206   6.044   1.359
10081WAT      O30644   6.366   0.336   1.513
10081WAT     H130645   6.280   0.323   1.473
10081WAT     H230646   6.428   0.323   1.441
10082WAT      O30647   0.504   3.296   3.470
10082WAT     H130648   0.578   3.237   3.453
10082WAT     H230649   0.430   3.253   3.427
10083WAT      O30650   4.130   4.148   2.564
10083WAT     H130651   4.038   4.152   2.587
10083WAT     H230652   4.131   4.134   2.469
10084WAT      O30653   2.937   7.041   0.684
10084WAT     H130654   2.898   7.095   0.752
10084WAT     H230655   2.863   7.012   0.631
10085WAT      O30656   7.187   2.930   4.142
10085WAT     H130657   7.110   2.886   4.105
10085WAT     H230658   7.261   2.895   4.093
10086WAT      O30659   5.540   2.761   5.285
10086WAT     H130660   5.565   2.750   5.377
10086WAT     H230661   5.492   2.681   5.263
10087WAT      O30662   1.646   3.834   4.041
10087WAT     H130663   1.572   3.873   3.995
10087WAT     H230664   1.723   3.873   4.000
10088WAT      O30665   5.643   5.005   2.917
10088WAT     H130666   5.607   4.925   2.956
10088WAT     H230667   5.685   4.976   2.836
10089WAT      O30668   6.022   5.242   1.276
10089WAT     H130669   6.088   5.181   1.245
10089WAT     H230670   5.994   5.289   1.197
10090WAT      O30671   5.024   6.175   0.101
10090WAT     H130672   4.942   6.138   0.133
10090WAT     H230673   5.046   6.122   0.024
10091WAT      O30674   1.943   3.346   5.020
10091WAT     H130675   1.989   3.425   5.047
10091WAT     H230676   1.926   3.299   5.102
10092WAT      O30677   5.238   0.170   3.219
10092WAT     H130678   5.161   0.220   3.245
10092WAT     H230679   5.236   0.171   3.123
10093WAT      O30680   0.932   4.305   0.877
10093WAT     H130681   0.951   4.398   0.889
10093WAT     H230682   0.849   4.303   0.830
10094WAT      O30683   5.224   2.681   5.601
10094WAT     H130684   5.245   2.653   5.691
10094WAT     H230685   5.159   2.617   5.572
10095WAT      O30686   0.679   0.295   3.099
10095WAT     H130687   0.618   0.336   3.037
10095WAT     H230688   0.711   0.368   3.152
10096WAT      O30689   3.485   2.620   3.806
10096WAT     H130690   3.419   2.606   3.873
10096WAT     H230691   3.537   2.540   3.807
10097WAT      O30692   6.953   6.060   3.399
10097WAT     H130693   6.875   6.053   3.453
10097WAT     H230694   6.921   6.063   3.309
10098WAT      O30695   2.755   4.277   0.443
10098WAT     H130696   2.845   4.310   0.443
10098WAT     H230697   2.744   4.237   0.357
10099WAT      O30698   6.341   1.416   1.288
10099WAT     H130699   6.370   1.335   1.330
10099WAT     H230700   6.418   1.447   1.240
10100WAT      O30701   7.221   3.654   1.063
10100WAT     H130702   7.179   3.569   1.078
10100WAT     H230703   7.154   3.718   1.087
10101WAT      O30704   6.800   6.643   0.979
10101WAT     H130705   6.742   6.573   1.007
10101WAT     H230706   6.744   6.721   0.975
10102WAT      O30707   6.032   2.805   5.272
10102WAT     H130708   6.100   2.870   5.253
10102WAT     H230709   6.051   2.733   5.212
10103WAT      O30710   4.689   6.526   0.792
10103WAT     H130711   4.616   6.465   0.780
10103WAT     H230712   4.685   6.549   0.885
10104WAT      O30713   3.604   2.957   3.473
10104WAT     H130714   3.607   2.911   3.389
10104WAT     H230715   3.554   3.036   3.455
10105WAT      O30716   6.627   3.771   2.976
10105WAT     H130717   6.627   3.800   2.885
10105WAT     H230718   6.535   3.755   2.996
10106WAT      O30719   4.187   2.124   0.723
10106WAT     H130720   4.130   2.167   0.787
10106WAT     H230721   4.134   2.118   0.644
10107WAT      O30722   5.870   3.541   1.947
10107WAT     H130723   5.943   3.510   1.893
10107WAT     H230724   5.796   3.486   1.922
10108WAT      O30725   0.616   1.174   1.061
10108WAT     H130726   0.575   1.165   0.975
10108WAT     H230727   0.546   1.208   1.117
10109WAT      O30728   7.464   2.256   1.990
10109WAT     H130729   7.498   2.258   1.901
10109WAT     H230730   7.391   2.194   1.986
10110WAT      O30731   1.359   5.540   1.032
10110WAT     H130732   1.394   5.610   0.976
10110WAT     H230733   1.273   5.573   1.060
10111WAT      O30734   4.600   4.068   1.369
10111WAT     H130735   4.571   3.977   1.365
10111WAT     H230736   4.521   4.119   1.351
10112WAT      O30737   6.893   1.535   2.965
10112WAT     H130738   6.868   1.622   2.996
10112WAT     H230739   6.846   1.525   2.882
10113WAT      O30740   1.249   5.006   4.584
10113WAT     H130741   1.205   4.933   4.540
10113WAT     H230742   1.238   5.079   4.524
10114WAT      O30743   2.195   0.781   2.335
10114WAT     H130744   2.126   0.840   2.305
10114WAT     H230745   2.162   0.693   2.318
10115WAT      O30746   4.444   2.923   4.957
10115WAT     H130747   4.420   3.006   4.916
10115WAT     H230748   4.479   2.870   4.886
10116WAT      O30749   7.193   5.398   3.726
10116WAT     H130750   7.127   5.403   3.656
10116WAT     H230751   7.251   5.473   3.709
10117WAT      O30752   5.561   0.366   3.981
10117WAT     H130753   5.601   0.291   3.936
10117WAT     H230754   5.616   0.440   3.956
10118WAT      O30755   1.744   6.837   4.806
10118WAT     H130756   1.833   6.807   4.822
10118WAT     H230757   1.752   6.930   4.785
10119WAT      O30758   5.982   6.154   2.155
10119WAT     H130759   6.025   6.074   2.124
10119WAT     H230760   6.051   6.204   2.198
10120WAT      O30761   4.945   1.388   4.644
10120WAT     H130762   4.922   1.423   4.558
10120WAT     H230763   4.988   1.461   4.689
10121WAT      O30764   7.003   4.269   5.585
10121WAT     H130765   6.921   4.261   5.536
10121WAT     H230766   7.069   4.289   5.518
10122WAT      O30767   3.557   2.505   2.507
10122WAT     H130768   3.605   2.547   2.578
10122WAT     H230769   3.596   2.419   2.498
10123WAT      O30770   0.539   2.149   0.697
10123WAT     H130771   0.494   2.166   0.614
10123WAT     H230772   0.518   2.058   0.717
10124WAT      O30773   4.913   3.873   3.758
10124WAT     H130774   4.958   3.866   3.674
10124WAT     H230775   4.924   3.787   3.798
10125WAT      O30776   2.331   0.392   1.348
10125WAT     H130777   2.393   0.324   1.319
10125WAT     H230778   2.366   0.420   1.433
10126WAT      O30779   4.598   5.203   0.533
10126WAT     H130780   4.663   5.232   0.470
10126WAT     H230781   4.563   5.121   0.498
10127WAT      O30782   5.845   4.444   4.576
10127WAT     H130783   5.860   4.393   4.497
10127WAT     H230784   5.856   4.382   4.647
10128WAT      O30785   0.131   0.969   0.933
10128WAT     H130786   0.079   0.918   0.994
10128WAT     H230787   0.195   0.906   0.898
10129WAT      O30788   7.050   7.053   4.949
10129WAT     H130789   7.007   7.088   5.027
10129WAT     H230790   7.011   7.102   4.877
10130WAT      O30791   1.640   7.031   4.152
10130WAT     H130792   1.554   7.016   4.114
10130WAT     H230793   1.679   6.944   4.159
10131WAT      O30794   5.297   5.609   6.042
10131WAT     H130795   5.241   5.556   6.100
10131WAT     H230796   5.302   5.694   6.086
10132WAT      O30797   1.390   1.470   0.727
10132WAT     H130798   1.387   1.409   0.801
10132WAT     H230799   1.387   1.414   0.649
10133WAT      O30800   7.611   6.106   5.383
10133WAT     H130801   7.520   6.077   5.378
10133WAT     H230802   7.659   6.045   5.327
10134WAT      O30803   6.826   7.104   4.442
10134WAT     H130804   6.853   7.188   4.478
10134WAT     H230805   6.833   7.114   4.347
10135WAT      O30806   0.008   4.691   2.763
10135WAT     H130807   0.093   4.698   2.719
10135WAT     H230808  -0.049   4.652   2.697
10136WAT      O30809   2.637   4.845   5.475
10136WAT     H130810   2.726   4.827   5.443
10136WAT     H230811   2.586   4.862   5.396
10137WAT      O30812   4.530   5.384   5.053
10137WAT     H130813   4.503   5.435   4.978
10137WAT     H230814   4.452   5.378   5.108
10138WAT      O30815   0.579   2.942   2.036
10138WAT     H130816   0.588   2.882   1.961
10138WAT     H230817   0.515   3.007   2.007
10139WAT      O30818   3.608   5.583   5.492
10139WAT     H130819   3.610   5.552   5.401
10139WAT     H230820   3.620   5.504   5.545
10140WAT      O30821   2.923   2.192   4.034
10140WAT     H130822   2.928   2.284   4.058
10140WAT     H230823   2.835   2.165   4.057
10141WAT      O30824   1.491   5.799   2.150
10141WAT     H130825   1.486   5.791   2.054
10141WAT     H230826   1.450   5.719   2.182
10142WAT      O30827   2.367   3.760   5.820
10142WAT     H130828   2.393   3.851   5.834
10142WAT     H230829   2.322   3.760   5.736
10143WAT      O30830   6.109   6.802   0.717
10143WAT     H130831   6.083   6.861   0.788
10143WAT     H230832   6.042   6.815   0.650
10144WAT      O30833   4.299   3.950   3.334
10144WAT     H130834   4.280   3.887   3.264
10144WAT     H230835   4.387   3.981   3.315
10145WAT      O30836   4.561   4.423   4.137
10145WAT     H130837   4.626   4.386   4.077
10145WAT     H230838   4.612   4.452   4.212
10146WAT      O30839   3.009   1.442   5.116
10146WAT     H130840   3.010   1.359   5.163
10146WAT     H230841   2.980   1.420   5.028
10147WAT      O30842   3.384   5.286   6.050
10147WAT     H130843   3.291   5.269   6.039
10147WAT     H230844   3.427   5.207   6.018
10148WAT      O30845   1.803   3.468   3.966
10148WAT     H130846   1.857   3.516   3.904
10148WAT     H230847   1.828   3.502   4.052
10149WAT      O30848   0.091   5.656   2.262
10149WAT     H130849   0.159   5.720   2.241
10149WAT     H230850   0.098   5.591   2.192
10150WAT      O30851   6.708   2.071   5.143
10150WAT     H130852   6.797   2.058   5.110
10150WAT     H230853   6.651   2.035   5.075
10151WAT      O30854   6.764   1.291   1.764
10151WAT     H130855   6.682   1.334   1.742
10151WAT     H230856   6.809   1.354   1.822
10152WAT      O30857   5.154   1.233   1.073
10152WAT     H130858   5.096   1.183   1.015
10152WAT     H230859   5.104   1.313   1.093
10153WAT      O30860   2.023   6.263   1.851
10153WAT     H130861   2.107   6.309   1.857
10153WAT     H230862   1.989   6.266   1.940
10154WAT      O30863   0.349   1.952   0.209
10154WAT     H130864   0.385   1.871   0.173
10154WAT     H230865   0.272   1.971   0.155
10155WAT      O30866   1.271   6.525   3.261
10155WAT     H130867   1.232   6.448   3.303
10155WAT     H230868   1.317   6.490   3.184
10156WAT      O30869   7.272   0.963   4.363
10156WAT     H130870   7.218   0.985   4.288
10156WAT     H230871   7.360   0.991   4.339
10157WAT      O30872   3.741   2.513   0.889
10157WAT     H130873   3.834   2.516   0.863
10157WAT     H230874   3.695   2.493   0.808
10158WAT      O30875   1.825   1.718   0.130
10158WAT     H130876   1.788   1.767   0.204
10158WAT     H230877   1.785   1.758   0.053
10159WAT      O30878   1.027   1.918   5.316
10159WAT     H130879   1.085   1.865   5.370
10159WAT     H230880   0.942   1.914   5.361
10160WAT      O30881   3.698   6.246   6.027
10160WAT     H130882   3.764   6.214   5.965
10160WAT     H230883   3.693   6.178   6.093
10161WAT      O30884   7.083   3.805   2.581
10161WAT     H130885   7.146   3.754   2.631
10161WAT     H230886   7.021   3.741   2.547
10162WAT      O30887   6.593   1.464   3.965
10162WAT     H130888   6.610   1.516   3.887
10162WAT     H230889   6.667   1.403   3.970
10163WAT      O30890   7.246   0.544   0.440
10163WAT     H130891   7.238   0.522   0.347
10163WAT     H230892   7.322   0.495   0.471
10164WAT      O30893   6.995   2.588   1.821
10164WAT     H130894   6.902   2.571   1.836
10164WAT     H230895   7.036   2.501   1.822
10165WAT      O30896   6.840   4.689   0.572
10165WAT     H130897   6.775   4.751   0.606
10165WAT     H230898   6.907   4.686   0.641
10166WAT      O30899   2.918   5.210   2.428
10166WAT     H130900   2.977   5.139   2.453
10166WAT     H230901   2.941   5.230   2.338
10167WAT      O30902   4.516   6.376   0.224
10167WAT     H130903   4.527   6.357   0.131
10167WAT     H230904   4.422   6.391   0.235
10168WAT      O30905   6.376   5.348   4.456
10168WAT     H130906   6.445   5.352   4.521
10168WAT     H230907   6.412   5.293   4.386
10169WAT      O30908   3.079   3.209   4.126
10169WAT     H130909   3.069   3.227   4.032
10169WAT     H230910   3.174   3.209   4.140
10170WAT      O30911   2.333   2.735   5.620
10170WAT     H130912   2.280   2.791   5.677
10170WAT     H230913   2.417   2.728   5.665
10171WAT      O30914   5.231   5.697   4.858
10171WAT     H130915   5.157   5.757   4.847
10171WAT     H230916   5.309   5.752   4.844
10172WAT      O30917   7.114   0.495   2.900
10172WAT     H130918   7.036   0.440   2.895
10172WAT     H230919   7.136   0.514   2.809
10173WAT      O30920   4.198   2.649   3.660
10173WAT     H130921   4.115   2.622   3.699
10173WAT     H230922   4.213   2.585   3.590
10174WAT      O30923   7.427   1.802   3.278
10174WAT     H130924   7.486   1.869   3.243
10174WAT     H230925   7.361   1.851   3.326
10175WAT      O30926   7.203   4.077   1.770
10175WAT     H130927   7.159   4.021   1.707
10175WAT     H230928   7.188   4.166   1.738
10176WAT      O30929   6.670   0.306   1.636
10176WAT     H130930   6.726   0.262   1.572
10176WAT     H230931   6.592   0.252   1.641
10177WAT      O30932   4.481   6.315   2.975
10177WAT     H130933   4.437   6.383   2.924
10177WAT     H230934   4.414   6.247   2.988
10178WAT      O30935   7.465   0.636   3.291
10178WAT     H130936   7.434   0.614   3.203
10178WAT     H230937   7.554   0.669   3.277
10179WAT      O30938   4.006   2.657   3.978
10179WAT     H130939   4.069   2.723   3.950
10179WAT     H230940   3.984   2.609   3.898
10180WAT      O30941   2.078   1.513   4.271
10180WAT     H130942   1.991   1.479   4.254
10180WAT     H230943   2.097   1.487   4.361
10181WAT      O30944   5.740   6.262   0.833
10181WAT     H130945   5.685   6.336   0.857
10181WAT     H230946   5.765   6.222   0.917
10182WAT      O30947   2.518   4.452   1.705
10182WAT     H130948   2.546   4.400   1.629
10182WAT     H230949   2.534   4.543   1.679
10183WAT      O30950   0.306   2.495   0.212
10183WAT     H130951   0.346   2.408   0.208
10183WAT     H230952   0.356   2.548   0.150
10184WAT      O30953   6.389   1.726   2.923
10184WAT     H130954   6.415   1.636   2.941
10184WAT     H230955   6.397   1.771   3.008
10185WAT      O30956   6.930   5.338   1.669
10185WAT     H130957   7.006   5.384   1.634
10185WAT     H230958   6.856   5.377   1.622
10186WAT      O30959   0.278   0.330   0.273
10186WAT     H130960   0.274   0.360   0.182
10186WAT     H230961   0.366   0.295   0.283
10187WAT      O30962   5.213   6.876   4.085
10187WAT     H130963   5.124   6.912   4.074
10187WAT     H230964   5.266   6.952   4.108
10188WAT      O30965   2.009   4.878   4.694
10188WAT     H130966   1.956   4.957   4.707
10188WAT     H230967   1.948   4.806   4.707
10189WAT      O30968   2.362   1.162   0.846
10189WAT     H130969   2.361   1.201   0.759
10189WAT     H230970   2.331   1.232   0.904
10190WAT      O30971   5.401   2.434   5.406
10190WAT     H130972   5.434   2.387   5.330
10190WAT     H230973   5.358   2.512   5.369
10191WAT      O30974   4.914   5.294   1.750
10191WAT     H130975   4.932   5.360   1.683
10191WAT     H230976   4.927   5.210   1.705
10192WAT      O30977   3.098   2.194   4.990
10192WAT     H130978   3.086   2.129   4.920
10192WAT     H230979   3.139   2.144   5.061
10193WAT      O30980   2.400   3.269   2.388
10193WAT     H130981   2.409   3.354   2.430
10193WAT     H230982   2.489   3.235   2.383
10194WAT      O30983   7.038   4.343   2.163
10194WAT     H130984   7.002   4.280   2.225
10194WAT     H230985   6.976   4.343   2.090
10195WAT      O30986   4.238   4.186   4.139
10195WAT     H130987   4.274   4.171   4.051
10195WAT     H230988   4.314   4.193   4.195
10196WAT      O30989   4.248   3.048   3.118
10196WAT     H130990   4.223   3.017   3.206
10196WAT     H230991   4.342   3.064   3.125
10197WAT      O30992   1.516   0.298   0.707
10197WAT     H130993   1.521   0.214   0.662
10197WAT     H230994   1.480   0.358   0.643
10198WAT      O30995   4.275   1.429   2.939
10198WAT     H130996   4.192   1.417   2.985
10198WAT     H230997   4.339   1.382   2.993
10199WAT      O30998   4.895   6.544   0.055
10199WAT     H130999   4.847   6.541   0.138
10199WAT     H231000   4.899   6.637   0.033
10200WAT      O31001   4.887   1.584   3.852
10200WAT     H131002   4.863   1.675   3.869
10200WAT     H231003   4.893   1.579   3.757
10201WAT      O31004   4.149   1.559   4.061
10201WAT     H131005   4.139   1.616   3.986
10201WAT     H231006   4.070   1.574   4.113
10202WAT      O31007   1.867   6.636   1.533
10202WAT     H131008   1.885   6.542   1.526
10202WAT     H231009   1.953   6.677   1.538
10203WAT      O31010   5.072   4.765   1.152
10203WAT     H131011   5.101   4.723   1.234
10203WAT     H231012   4.994   4.715   1.127
10204WAT      O31013   4.906   1.940   5.187
10204WAT     H131014   4.823   1.936   5.235
10204WAT     H231015   4.926   2.034   5.182
10205WAT      O31016   0.380   6.395   1.707
10205WAT     H131017   0.429   6.398   1.789
10205WAT     H231018   0.446   6.412   1.639
10206WAT      O31019   1.475   6.132   4.568
10206WAT     H131020   1.466   6.083   4.486
10206WAT     H231021   1.479   6.224   4.541
10207WAT      O31022   0.869   6.084   0.325
10207WAT     H131023   0.890   5.991   0.329
10207WAT     H231024   0.790   6.088   0.270
10208WAT      O31025   3.191   6.217   3.387
10208WAT     H131026   3.102   6.250   3.382
10208WAT     H231027   3.201   6.161   3.310
10209WAT      O31028   2.955   4.120   5.195
10209WAT     H131029   2.898   4.096   5.122
10209WAT     H231030   2.989   4.206   5.172
10210WAT      O31031   3.121   4.033   3.893
10210WAT     H131032   3.137   3.999   3.805
10210WAT     H231033   3.150   3.964   3.952
10211WAT      O31034   6.151   0.181   4.776
10211WAT     H131035   6.132   0.264   4.732
10211WAT     H231036   6.161   0.118   4.705
10212WAT      O31037   1.750   5.373   4.468
10212WAT     H131038   1.797   5.422   4.401
10212WAT     H231039   1.683   5.325   4.420
10213WAT      O31040   6.506   0.564   6.132
10213WAT     H131041   6.526   0.528   6.045
10213WAT     H231042   6.468   0.650   6.114
10214WAT      O31043   3.501   5.604   0.228
10214WAT     H131044   3.586   5.559   0.238
10214WAT     H231045   3.522   5.684   0.180
10215WAT      O31046   0.679   5.153   2.961
10215WAT     H131047   0.717   5.075   2.920
10215WAT     H231048   0.590   5.127   2.984
10216WAT      O31049   1.071   3.031   1.677
10216WAT     H131050   1.074   3.126   1.669
10216WAT     H231051   1.146   3.000   1.626
10217WAT      O31052   4.612   0.225   1.936
10217WAT     H131053   4.578   0.211   1.848
10217WAT     H231054   4.647   0.314   1.935
10218WAT      O31055   0.933   4.016   3.824
10218WAT     H131056   0.991   4.024   3.749
10218WAT     H231057   0.964   3.939   3.871
10219WAT      O31058   3.578   0.730   4.252
10219WAT     H131059   3.521   0.685   4.189
10219WAT     H231060   3.533   0.720   4.336
10220WAT      O31061   2.378   1.470   3.958
10220WAT     H131062   2.461   1.446   3.918
10220WAT     H231063   2.359   1.399   4.019
10221WAT      O31064   1.151   1.853   0.566
10221WAT     H131065   1.194   1.837   0.482
10221WAT     H231066   1.191   1.792   0.627
10222WAT      O31067   1.452   0.891   2.842
10222WAT     H131068   1.437   0.874   2.935
10222WAT     H231069   1.491   0.979   2.840
10223WAT      O31070   1.479   4.728   6.225
10223WAT     H131071   1.469   4.739   6.130
10223WAT     H231072   1.448   4.811   6.262
10224WAT      O31073   7.467   2.800   2.557
10224WAT     H131074   7.420   2.793   2.640
10224WAT     H231075   7.409   2.756   2.494
10225WAT      O31076   2.589   2.861   1.055
10225WAT     H131077   2.615   2.769   1.059
10225WAT     H231078   2.551   2.871   0.968
10226WAT      O31079   5.081   2.762   6.106
10226WAT     H131080   5.033   2.845   6.107
10226WAT     H231081   5.155   2.778   6.047
10227WAT      O31082   4.219   0.447   0.018
10227WAT     H131083   4.183   0.447  -0.071
10227WAT     H231084   4.308   0.413   0.009
10228WAT      O31085   5.453   1.019   5.656
10228WAT     H131086   5.446   1.105   5.697
10228WAT     H231087   5.369   1.006   5.611
10229WAT      O31088   2.320   2.811   1.980
10229WAT     H131089   2.279   2.726   1.997
10229WAT     H231090   2.342   2.809   1.887
10230WAT      O31091   5.327   6.508   3.312
10230WAT     H131092   5.263   6.438   3.329
10230WAT     H231093   5.286   6.586   3.349
10231WAT      O31094   5.646   1.062   6.058
10231WAT     H131095   5.664   1.000   5.987
10231WAT     H231096   5.616   1.141   6.013
10232WAT      O31097   3.885   2.594   3.748
10232WAT     H131098   3.806   2.541   3.739
10232WAT     H231099   3.873   2.666   3.686
10233WAT      O31100   5.689   6.276   1.418
10233WAT     H131101   5.758   6.313   1.473
10233WAT     H231102   5.719   6.290   1.329
10234WAT      O31103   6.655   6.238   1.864
10234WAT     H131104   6.727   6.176   1.860
10234WAT     H231105   6.689   6.317   1.822
10235WAT      O31106   6.569   3.644   3.418
10235WAT     H131107   6.615   3.678   3.341
10235WAT     H231108   6.478   3.634   3.390
10236WAT      O31109   4.692   6.282   0.416
10236WAT     H131110   4.768   6.331   0.383
10236WAT     H231111   4.622   6.301   0.353
10237WAT      O31112   1.289   3.611   4.844
10237WAT     H131113   1.253   3.580   4.761
10237WAT     H231114   1.329   3.535   4.884
10238WAT      O31115   5.430   5.754   1.601
10238WAT     H131116   5.452   5.763   1.508
10238WAT     H231117   5.373   5.828   1.619
10239WAT      O31118   1.330   5.696   0.331
10239WAT     H131119   1.263   5.743   0.280
10239WAT     H231120   1.330   5.608   0.294
10240WAT      O31121   7.439   6.471   0.784
10240WAT     H131122   7.504   6.536   0.810
10240WAT     H231123   7.384   6.458   0.861
10241WAT      O31124   7.029   3.933   2.153
10241WAT     H131125   7.088   3.969   2.087
10241WAT     H231126   7.018   4.005   2.216
10242WAT      O31127   6.556   5.979   5.032
10242WAT     H131128   6.559   6.014   5.121
10242WAT     H231129   6.464   5.958   5.018
10243WAT      O31130   3.516   5.843   5.423
10243WAT     H131131   3.510   5.803   5.336
10243WAT     H231132   3.579   5.788   5.470
10244WAT      O31133   4.083   3.203   2.595
10244WAT     H131134   4.165   3.251   2.609
10244WAT     H231135   4.071   3.204   2.500
10245WAT      O31136   3.581   5.006   2.313
10245WAT     H131137   3.616   4.933   2.364
10245WAT     H231138   3.494   5.020   2.348
10246WAT      O31139   6.782   0.917   3.520
10246WAT     H131140   6.794   0.953   3.432
10246WAT     H231141   6.701   0.866   3.514
10247WAT      O31142   0.177   7.087   4.911
10247WAT     H131143   0.146   6.997   4.897
10247WAT     H231144   0.232   7.105   4.835
10248WAT      O31145   7.294   3.628   2.656
10248WAT     H131146   7.321   3.538   2.641
10248WAT     H231147   7.338   3.678   2.586
10249WAT      O31148   1.094   6.875   6.220
10249WAT     H131149   1.119   6.966   6.238
10249WAT     H231150   1.158   6.846   6.155
10250WAT      O31151   2.680   4.587   1.022
10250WAT     H131152   2.589   4.609   1.043
10250WAT     H231153   2.675   4.500   0.982
10251WAT      O31154   0.470   5.447   5.740
10251WAT     H131155   0.565   5.454   5.738
10251WAT     H231156   0.445   5.423   5.651
10252WAT      O31157   0.103   1.690   2.137
10252WAT     H131158   0.128   1.746   2.210
10252WAT     H231159   0.014   1.661   2.157
10253WAT      O31160   2.055   5.832   0.849
10253WAT     H131161   2.091   5.909   0.894
10253WAT     H231162   2.009   5.868   0.774
10254WAT      O31163   0.455   5.576   0.835
10254WAT     H131164   0.443   5.649   0.774
10254WAT     H231165   0.537   5.595   0.879
10255WAT      O31166   6.680   0.709   4.276
10255WAT     H131167   6.623   0.633   4.264
10255WAT     H231168   6.665   0.735   4.367
10256WAT      O31169   6.050   2.128   2.620
10256WAT     H131170   6.028   2.191   2.552
10256WAT     H231171   5.976   2.130   2.681
10257WAT      O31172   1.732   4.657   2.493
10257WAT     H131173   1.804   4.615   2.445
10257WAT     H231174   1.712   4.736   2.442
10258WAT      O31175   2.633   5.993   5.079
10258WAT     H131176   2.660   5.958   4.994
10258WAT     H231177   2.674   6.080   5.083
10259WAT      O31178   1.852   0.995   0.447
10259WAT     H131179   1.870   1.055   0.519
10259WAT     H231180   1.842   1.052   0.370
10260WAT      O31181   1.428   6.340   0.116
10260WAT     H131182   1.431   6.434   0.101
10260WAT     H231183   1.336   6.317   0.106
10261WAT      O31184   2.939   2.783   2.427
10261WAT     H131185   2.990   2.775   2.347
10261WAT     H231186   2.869   2.845   2.405
10262WAT      O31187   0.926   2.793   2.557
10262WAT     H131188   0.917   2.728   2.488
10262WAT     H231189   1.015   2.826   2.547
10263WAT      O31190   3.890   5.372   5.354
10263WAT     H131191   3.877   5.287   5.312
10263WAT     H231192   3.802   5.410   5.358
10264WAT      O31193   5.595   2.877   2.659
10264WAT     H131194   5.626   2.792   2.627
10264WAT     H231195   5.591   2.932   2.581
10265WAT      O31196   4.143   1.717   3.557
10265WAT     H131197   4.173   1.805   3.536
10265WAT     H231198   4.220   1.673   3.595
10266WAT      O31199   3.090   3.220   0.814
10266WAT     H131200   3.024   3.284   0.787
10266WAT     H231201   3.122   3.182   0.733
10267WAT      O31202   2.864   0.665   3.029
10267WAT     H131203   2.934   0.599   3.027
10267WAT     H231204   2.807   0.637   3.100
10268WAT      O31205   1.841   3.222   6.204
10268WAT     H131206   1.863   3.245   6.114
10268WAT     H231207   1.881   3.291   6.257
10269WAT      O31208   5.104   0.073   1.970
10269WAT     H131209   5.079  -0.004   1.918
10269WAT     H231210   5.187   0.101   1.932
10270WAT      O31211   0.570   6.802   2.822
10270WAT     H131212   0.483   6.763   2.819
10270WAT     H231213   0.630   6.728   2.813
10271WAT      O31214   4.382   0.681   2.485
10271WAT     H131215   4.318   0.675   2.556
10271WAT     H231216   4.361   0.608   2.427
10272WAT      O31217   2.648   0.293   5.363
10272WAT     H131218   2.594   0.331   5.294
10272WAT     H231219   2.728   0.264   5.319
10273WAT      O31220   3.618   6.208   3.262
10273WAT     H131221   3.575   6.187   3.345
10273WAT     H231222   3.609   6.128   3.210
10274WAT      O31223   5.340   1.556   3.390
10274WAT     H131224   5.383   1.471   3.388
10274WAT     H231225   5.329   1.576   3.483
10275WAT      O31226   3.435   6.017   3.800
10275WAT     H131227   3.383   6.080   3.749
10275WAT     H231228   3.380   5.939   3.804
10276WAT      O31229   4.605   0.240   3.139
10276WAT     H131230   4.659   0.210   3.067
10276WAT     H231231   4.515   0.220   3.113
10277WAT      O31232   6.852   3.272   5.949
10277WAT     H131233   6.937   3.300   5.915
10277WAT     H231234   6.850   3.177   5.935
10278WAT      O31235   1.470   4.182   2.240
10278WAT     H131236   1.409   4.248   2.207
10278WAT     H231237   1.556   4.224   2.236
10279WAT      O31238   7.532   6.724   1.060
10279WAT     H131239   7.437   6.714   1.052
10279WAT     H231240   7.567   6.690   0.978
10280WAT      O31241   0.842   5.637   1.478
10280WAT     H131242   0.895   5.577   1.530
10280WAT     H231243   0.755   5.634   1.520
10281WAT      O31244   5.894   6.592   2.117
10281WAT     H131245   5.803   6.622   2.115
10281WAT     H231246   5.926   6.607   2.029
10282WAT      O31247   2.453   0.127   2.742
10282WAT     H131248   2.432   0.220   2.734
10282WAT     H231249   2.383   0.090   2.796
10283WAT      O31250   0.841   1.137   3.001
10283WAT     H131251   0.851   1.117   2.908
10283WAT     H231252   0.777   1.208   3.004
10284WAT      O31253   4.122   4.640   0.920
10284WAT     H131254   4.053   4.683   0.870
10284WAT     H231255   4.182   4.606   0.855
10285WAT      O31256   3.009   2.371   1.906
10285WAT     H131257   3.048   2.318   1.837
10285WAT     H231258   3.078   2.376   1.973
10286WAT      O31259   7.530   2.076   5.202
10286WAT     H131260   7.501   2.075   5.111
10286WAT     H231261   7.453   2.101   5.252
10287WAT      O31262   3.207   1.482   1.677
10287WAT     H131263   3.172   1.571   1.683
10287WAT     H231264   3.279   1.489   1.615
10288WAT      O31265   2.193   0.277   0.603
10288WAT     H131266   2.222   0.351   0.549
10288WAT     H231267   2.265   0.262   0.664
10289WAT      O31268   4.386   1.006   1.085
10289WAT     H131269   4.477   1.035   1.087
10289WAT     H231270   4.387   0.929   1.027
10290WAT      O31271   6.927   0.837   1.965
10290WAT     H131272   6.844   0.814   1.923
10290WAT     H231273   6.993   0.812   1.900
10291WAT      O31274   0.469   0.787   4.216
10291WAT     H131275   0.537   0.771   4.150
10291WAT     H231276   0.398   0.727   4.192
10292WAT      O31277   3.567   0.440   4.854
10292WAT     H131278   3.524   0.365   4.895
10292WAT     H231279   3.522   0.451   4.770
10293WAT      O31280   3.088   0.425   5.872
10293WAT     H131281   3.012   0.422   5.814
10293WAT     H231282   3.051   0.444   5.959
10294WAT      O31283   7.364   3.911   3.832
10294WAT     H131284   7.335   3.972   3.765
10294WAT     H231285   7.417   3.964   3.892
10295WAT      O31286   6.994   3.888   3.501
10295WAT     H131287   6.971   3.838   3.423
10295WAT     H231288   7.042   3.826   3.556
10296WAT      O31289   6.076   2.608   2.628
10296WAT     H131290   6.020   2.666   2.576
10296WAT     H231291   6.076   2.647   2.715
10297WAT      O31292   5.791   5.995   4.209
10297WAT     H131293   5.825   5.998   4.120
10297WAT     H231294   5.708   5.949   4.202
10298WAT      O31295   4.065   0.219   0.070
10298WAT     H131296   4.081   0.309   0.097
10298WAT     H231297   4.149   0.175   0.082
10299WAT      O31298   5.735   1.521   5.497
10299WAT     H131299   5.760   1.438   5.457
10299WAT     H231300   5.640   1.528   5.482
10300WAT      O31301   4.817   6.016   1.441
10300WAT     H131302   4.912   6.010   1.442
10300WAT     H231303   4.787   5.928   1.465
10301WAT      O31304   5.777   3.215   1.966
10301WAT     H131305   5.858   3.166   1.981
10301WAT     H231306   5.784   3.246   1.875
10302WAT      O31307   2.965   2.099   2.570
10302WAT     H131308   2.870   2.104   2.573
10302WAT     H231309   2.984   2.027   2.510
10303WAT      O31310   6.435   1.308   4.647
10303WAT     H131311   6.462   1.369   4.715
10303WAT     H231312   6.390   1.237   4.693
10304WAT      O31313   3.531   6.447   1.946
10304WAT     H131314   3.622   6.422   1.962
10304WAT     H231315   3.536   6.515   1.880
10305WAT      O31316   4.520   4.684   2.510
10305WAT     H131317   4.428   4.708   2.499
10305WAT     H231318   4.526   4.596   2.472
10306WAT      O31319   7.346   5.840   0.865
10306WAT     H131320   7.252   5.834   0.883
10306WAT     H231321   7.354   5.817   0.773
10307WAT      O31322   7.285   0.112   4.938
10307WAT     H131323   7.304   0.160   4.857
10307WAT     H231324   7.254   0.180   4.999
10308WAT      O31325   7.265   4.524   1.080
10308WAT     H131326   7.215   4.593   1.037
10308WAT     H231327   7.355   4.557   1.080
10309WAT      O31328   2.683   2.867   2.421
10309WAT     H131329   2.634   2.889   2.341
10309WAT     H231330   2.652   2.930   2.486
10310WAT      O31331   7.288   1.652   1.060
10310WAT     H131332   7.297   1.647   0.965
10310WAT     H231333   7.328   1.570   1.092
10311WAT      O31334   5.077   3.189   1.339
10311WAT     H131335   5.123   3.242   1.404
10311WAT     H231336   5.110   3.100   1.353
10312WAT      O31337   6.507   1.059   0.613
10312WAT     H131338   6.532   1.125   0.678
10312WAT     H231339   6.525   1.100   0.529
10313WAT      O31340   3.164   3.356   1.055
10313WAT     H131341   3.089   3.298   1.068
10313WAT     H231342   3.213   3.315   0.982
10314WAT      O31343   2.515   3.977   5.096
10314WAT     H131344   2.481   3.901   5.049
10314WAT     H231345   2.597   3.998   5.050
10315WAT      O31346   6.699   0.510   1.302
10315WAT     H131347   6.754   0.532   1.377
10315WAT     H231348   6.674   0.419   1.316
10316WAT      O31349   0.694   5.880   0.605
10316WAT     H131350   0.615   5.888   0.657
10316WAT     H231351   0.702   5.786   0.586
10317WAT      O31352   1.898   0.493   4.715
10317WAT     H131353   1.938   0.444   4.787
10317WAT     H231354   1.806   0.467   4.717
10318WAT      O31355   1.598   1.124   2.989
10318WAT     H131356   1.576   1.217   2.979
10318WAT     H231357   1.692   1.120   2.974
10319WAT      O31358   6.984   5.226   5.474
10319WAT     H131359   7.027   5.299   5.428
10319WAT     H231360   7.051   5.159   5.480
10320WAT      O31361   7.050   3.038   4.973
10320WAT     H131362   6.972   2.996   4.938
10320WAT     H231363   7.019   3.088   5.048
10321WAT      O31364   1.577   5.362   3.997
10321WAT     H131365   1.523   5.318   4.063
10321WAT     H231366   1.595   5.295   3.932
10322WAT      O31367   2.586   4.038   3.410
10322WAT     H131368   2.568   4.117   3.461
10322WAT     H231369   2.548   4.055   3.324
10323WAT      O31370   5.169   4.479   0.866
10323WAT     H131371   5.226   4.449   0.796
10323WAT     H231372   5.130   4.560   0.833
10324WAT      O31373   4.270   6.081   3.403
10324WAT     H131374   4.337   6.149   3.411
10324WAT     H231375   4.317   6.004   3.372
10325WAT      O31376   0.477   2.271   0.214
10325WAT     H131377   0.448   2.181   0.226
10325WAT     H231378   0.521   2.272   0.129
10326WAT      O31379   3.392   3.879   4.106
10326WAT     H131380   3.426   3.883   4.196
10326WAT     H231381   3.453   3.934   4.056
10327WAT      O31382   1.285   5.300   5.688
10327WAT     H131383   1.251   5.242   5.620
10327WAT     H231384   1.377   5.276   5.696
10328WAT      O31385   1.863   1.129   2.955
10328WAT     H131386   1.910   1.212   2.966
10328WAT     H231387   1.923   1.063   2.991
10329WAT      O31388   7.438   1.263   0.846
10329WAT     H131389   7.416   1.233   0.759
10329WAT     H231390   7.530   1.289   0.841
10330WAT      O31391   7.480   5.634   3.011
10330WAT     H131392   7.430   5.701   2.964
10330WAT     H231393   7.476   5.662   3.103
10331WAT      O31394   5.123   4.834   4.531
10331WAT     H131395   5.043   4.879   4.502
10331WAT     H231396   5.187   4.853   4.463
10332WAT      O31397   7.196   1.872   5.658
10332WAT     H131398   7.237   1.792   5.689
10332WAT     H231399   7.177   1.856   5.566
10333WAT      O31400   1.031   0.122   3.502
10333WAT     H131401   1.011   0.059   3.571
10333WAT     H231402   1.068   0.198   3.548
10334WAT      O31403   4.220   5.387   4.763
10334WAT     H131404   4.302   5.341   4.743
10334WAT     H231405   4.163   5.319   4.800
10335WAT      O31406   3.914   4.269   0.861
10335WAT     H131407   3.981   4.326   0.898
10335WAT     H231408   3.963   4.196   0.822
10336WAT      O31409   7.507   4.725   3.563
10336WAT     H131410   7.423   4.771   3.556
10336WAT     H231411   7.485   4.633   3.550
10337WAT      O31412   3.039   0.887   2.701
10337WAT     H131413   3.097   0.964   2.709
10337WAT     H231414   3.028   0.875   2.607
10338WAT      O31415   5.699   2.715   3.253
10338WAT     H131416   5.646   2.636   3.263
10338WAT     H231417   5.784   2.692   3.293
10339WAT      O31418   3.151   5.893   0.063
10339WAT     H131419   3.177   5.934  -0.019
10339WAT     H231420   3.232   5.888   0.114
10340WAT      O31421   6.085   6.217   4.508
10340WAT     H131422   6.061   6.253   4.594
10340WAT     H231423   6.010   6.238   4.452
10341WAT      O31424   0.933   0.787   3.536
10341WAT     H131425   0.849   0.798   3.490
10341WAT     H231426   0.908   0.767   3.626
10342WAT      O31427   6.600   4.363   1.975
10342WAT     H131428   6.670   4.420   1.945
10342WAT     H231429   6.523   4.420   1.979
10343WAT      O31430   5.477   4.014   3.724
10343WAT     H131431   5.505   4.095   3.767
10343WAT     H231432   5.506   4.023   3.633
10344WAT      O31433   3.180   5.569   5.934
10344WAT     H131434   3.090   5.595   5.915
10344WAT     H231435   3.234   5.631   5.883
10345WAT      O31436   7.614   5.296   3.125
10345WAT     H131437   7.592   5.364   3.061
10345WAT     H231438   7.544   5.302   3.191
10346WAT      O31439   3.985   7.056   2.753
10346WAT     H131440   4.063   7.038   2.699
10346WAT     H231441   3.927   7.106   2.696
10347WAT      O31442   1.079   5.140   4.373
10347WAT     H131443   1.057   5.059   4.328
10347WAT     H231444   1.003   5.158   4.428
10348WAT      O31445   2.288   1.647   3.368
10348WAT     H131446   2.270   1.694   3.286
10348WAT     H231447   2.301   1.556   3.341
10349WAT      O31448   0.608   6.519   4.330
10349WAT     H131449   0.672   6.471   4.383
10349WAT     H231450   0.530   6.463   4.330
10350WAT      O31451   3.105   0.032   3.821
10350WAT     H131452   3.034  -0.004   3.874
10350WAT     H231453   3.128   0.115   3.863
10351WAT      O31454   2.177   1.109   3.730
10351WAT     H131455   2.130   1.174   3.678
10351WAT     H231456   2.138   1.116   3.817
10352WAT      O31457   1.369   2.301   5.606
10352WAT     H131458   1.367   2.254   5.523
10352WAT     H231459   1.405   2.387   5.584
10353WAT      O31460   5.232   5.312   5.602
10353WAT     H131461   5.172   5.253   5.556
10353WAT     H231462   5.305   5.256   5.630
10354WAT      O31463   6.525   2.068   2.619
10354WAT     H131464   6.441   2.089   2.659
10354WAT     H231465   6.517   2.094   2.528
10355WAT      O31466   0.420   3.504   0.247
10355WAT     H131467   0.431   3.500   0.152
10355WAT     H231468   0.490   3.562   0.277
10356WAT      O31469   4.446   5.564   4.879
10356WAT     H131470   4.355   5.543   4.903
10356WAT     H231471   4.439   5.603   4.792
10357WAT      O31472   4.333   3.384   5.928
10357WAT     H131473   4.419   3.380   5.888
10357WAT     H231474   4.273   3.399   5.855
10358WAT      O31475   2.563   3.733   3.504
10358WAT     H131476   2.554   3.809   3.448
10358WAT     H231477   2.626   3.677   3.459
10359WAT      O31478   2.982   3.002   4.659
10359WAT     H131479   2.968   3.083   4.611
10359WAT     H231480   2.894   2.968   4.676
10360WAT      O31481   0.688   1.638   2.839
10360WAT     H131482   0.618   1.696   2.868
10360WAT     H231483   0.668   1.620   2.748
10361WAT      O31484   5.524   1.759   1.310
10361WAT     H131485   5.495   1.725   1.225
10361WAT     H231486   5.574   1.838   1.288
10362WAT      O31487   5.279   5.539   4.543
10362WAT     H131488   5.193   5.581   4.543
10362WAT     H231489   5.322   5.572   4.464
10363WAT      O31490   0.234   3.513   3.202
10363WAT     H131491   0.256   3.574   3.132
10363WAT     H231492   0.169   3.455   3.163
10364WAT      O31493   6.577   4.789   4.791
10364WAT     H131494   6.534   4.866   4.754
10364WAT     H231495   6.508   4.744   4.840
10365WAT      O31496   5.991   6.034   3.075
10365WAT     H131497   5.931   6.020   3.149
10365WAT     H231498   5.968   6.121   3.042
10366WAT      O31499   4.756   2.464   1.808
10366WAT     H131500   4.668   2.431   1.825
10366WAT     H231501   4.797   2.396   1.754
10367WAT      O31502   6.662   1.038   3.821
10367WAT     H131503   6.575   1.063   3.791
10367WAT     H231504   6.650   1.014   3.913
10368WAT      O31505   1.552   6.648   3.672
10368WAT     H131506   1.626   6.587   3.666
10368WAT     H231507   1.498   6.628   3.596
10369WAT      O31508   3.537   7.069   5.436
10369WAT     H131509   3.460   7.125   5.427
10369WAT     H231510   3.506   6.994   5.486
10370WAT      O31511   5.629   5.755   5.863
10370WAT     H131512   5.707   5.703   5.844
10370WAT     H231513   5.556   5.704   5.828
10371WAT      O31514   6.604   0.790   0.079
10371WAT     H131515   6.543   0.721   0.056
10371WAT     H231516   6.675   0.746   0.124
10372WAT      O31517   4.544   5.992   3.164
10372WAT     H131518   4.574   5.971   3.075
10372WAT     H231519   4.460   6.036   3.150
10373WAT      O31520   3.972   1.276   2.479
10373WAT     H131521   4.040   1.256   2.414
10373WAT     H231522   3.950   1.192   2.518
10374WAT      O31523   7.350   4.503   2.412
10374WAT     H131524   7.391   4.468   2.332
10374WAT     H231525   7.262   4.528   2.384
10375WAT      O31526   6.077   5.498   2.627
10375WAT     H131527   6.022   5.534   2.557
10375WAT     H231528   6.021   5.501   2.705
10376WAT      O31529   6.895   2.478   2.289
10376WAT     H131530   6.831   2.429   2.238
10376WAT     H231531   6.974   2.476   2.236
10377WAT      O31532   3.176   3.551   4.266
10377WAT     H131533   3.264   3.552   4.304
10377WAT     H231534   3.191   3.548   4.171
10378WAT      O31535   5.823   3.783   4.387
10378WAT     H131536   5.736   3.824   4.390
10378WAT     H231537   5.806   3.696   4.350
10379WAT      O31538   2.676   3.867   1.192
10379WAT     H131539   2.693   3.866   1.098
10379WAT     H231540   2.598   3.921   1.202
10380WAT      O31541   1.042   2.993   1.154
10380WAT     H131542   0.980   3.058   1.190
10380WAT     H231543   1.118   3.045   1.128
10381WAT      O31544   3.996   3.845   5.305
10381WAT     H131545   4.032   3.865   5.219
10381WAT     H231546   4.051   3.893   5.366
10382WAT      O31547   5.545   0.295   5.451
10382WAT     H131548   5.617   0.258   5.400
10382WAT     H231549   5.509   0.363   5.394
10383WAT      O31550   5.386   3.746   3.514
10383WAT     H131551   5.478   3.765   3.497
10383WAT     H231552   5.342   3.831   3.503
10384WAT      O31553   0.011   0.891   3.997
10384WAT     H131554   0.094   0.906   4.043
10384WAT     H231555  -0.025   0.978   3.985
10385WAT      O31556   3.426   3.082   3.087
10385WAT     H131557   3.457   3.162   3.045
10385WAT     H231558   3.470   3.012   3.040
10386WAT      O31559   6.504   1.552   2.326
10386WAT     H131560   6.514   1.575   2.234
10386WAT     H231561   6.496   1.636   2.371
10387WAT      O31562   4.853   6.977   2.819
10387WAT     H131563   4.842   6.882   2.813
10387WAT     H231564   4.891   7.002   2.735
10388WAT      O31565   6.369   5.761   3.725
10388WAT     H131566   6.433   5.830   3.740
10388WAT     H231567   6.296   5.783   3.784
10389WAT      O31568   6.708   1.229   2.959
10389WAT     H131569   6.781   1.169   2.943
10389WAT     H231570   6.640   1.202   2.898
10390WAT      O31571   4.186   2.799   2.976
10390WAT     H131572   4.223   2.885   2.999
10390WAT     H231573   4.164   2.806   2.883
10391WAT      O31574   7.497   6.144   1.482
10391WAT     H131575   7.505   6.089   1.404
10391WAT     H231576   7.459   6.226   1.449
10392WAT      O31577   0.014   0.384   4.639
10392WAT     H131578  -0.023   0.340   4.563
10392WAT     H231579   0.086   0.436   4.604
10393WAT      O31580   3.099   3.351   5.714
10393WAT     H131581   3.099   3.317   5.803
10393WAT     H231582   3.179   3.405   5.709
10394WAT      O31583   1.050   0.155   6.010
10394WAT     H131584   1.003   0.216   5.954
10394WAT     H231585   1.139   0.152   5.972
10395WAT      O31586   2.266   3.195   1.374
10395WAT     H131587   2.329   3.125   1.390
10395WAT     H231588   2.196   3.153   1.324
10396WAT      O31589   4.298   3.885   0.808
10396WAT     H131590   4.393   3.876   0.810
10396WAT     H231591   4.265   3.799   0.832
10397WAT      O31592   1.330   4.397   2.128
10397WAT     H131593   1.292   4.481   2.104
10397WAT     H231594   1.372   4.366   2.048
10398WAT      O31595   0.524   0.245   2.779
10398WAT     H131596   0.454   0.181   2.763
10398WAT     H231597   0.598   0.213   2.729
10399WAT      O31598   0.304   6.498   4.218
10399WAT     H131599   0.316   6.439   4.292
10399WAT     H231600   0.358   6.460   4.148
10400WAT      O31601   7.047   3.406   5.820
10400WAT     H131602   7.017   3.385   5.732
10400WAT     H231603   7.044   3.502   5.825
10401WAT      O31604   2.141   7.074   2.328
10401WAT     H131605   2.093   7.019   2.266
10401WAT     H231606   2.148   7.020   2.407
10402WAT      O31607   1.848   0.149   0.172
10402WAT     H131608   1.789   0.113   0.106
10402WAT     H231609   1.918   0.191   0.122
10403WAT      O31610   3.219   1.619   5.068
10403WAT     H131611   3.273   1.562   5.014
10403WAT     H231612   3.147   1.564   5.098
10404WAT      O31613   1.986   2.585   0.901
10404WAT     H131614   1.944   2.627   0.826
10404WAT     H231615   1.916   2.535   0.942
10405WAT      O31616   3.868   5.547   3.249
10405WAT     H131617   3.961   5.564   3.236
10405WAT     H231618   3.846   5.479   3.185
10406WAT      O31619   2.696   2.001   6.035
10406WAT     H131620   2.719   1.942   5.963
10406WAT     H231621   2.678   2.085   5.992
10407WAT      O31622   3.843   4.130   2.553
10407WAT     H131623   3.795   4.122   2.471
10407WAT     H231624   3.814   4.055   2.605
10408WAT      O31625   5.001   3.023   0.073
10408WAT     H131626   4.945   3.098   0.054
10408WAT     H231627   5.017   2.983  -0.013
10409WAT      O31628   1.084   6.754   2.485
10409WAT     H131629   1.159   6.708   2.521
10409WAT     H231630   1.008   6.702   2.513
10410WAT      O31631   4.068   4.416   1.075
10410WAT     H131632   4.150   4.400   1.122
10410WAT     H231633   4.082   4.499   1.029
10411WAT      O31634   3.452   3.368   1.433
10411WAT     H131635   3.478   3.276   1.446
10411WAT     H231636   3.399   3.389   1.509
10412WAT      O31637   7.225   2.940   5.508
10412WAT     H131638   7.262   2.854   5.530
10412WAT     H231639   7.225   2.942   5.412
10413WAT      O31640   4.403   1.764   5.085
10413WAT     H131641   4.322   1.815   5.090
10413WAT     H231642   4.387   1.700   5.015
10414WAT      O31643   6.341   2.396   3.253
10414WAT     H131644   6.309   2.485   3.239
10414WAT     H231645   6.305   2.346   3.180
10415WAT      O31646   5.097   0.937   3.279
10415WAT     H131647   5.005   0.913   3.289
10415WAT     H231648   5.096   1.014   3.223
10416WAT      O31649   5.797   0.740   1.192
10416WAT     H131650   5.744   0.803   1.241
10416WAT     H231651   5.766   0.747   1.102
10417WAT      O31652   0.445   7.035   0.500
10417WAT     H131653   0.363   7.054   0.547
10417WAT     H231654   0.443   7.096   0.425
10418WAT      O31655   7.072   6.142   5.232
10418WAT     H131656   7.048   6.213   5.173
10418WAT     H231657   7.159   6.167   5.264
10419WAT      O31658   5.849   4.778   3.667
10419WAT     H131659   5.811   4.833   3.599
10419WAT     H231660   5.941   4.804   3.671
10420WAT      O31661   4.166   6.892   6.025
10420WAT     H131662   4.213   6.814   6.053
10420WAT     H231663   4.188   6.901   5.932
10421WAT      O31664   2.653   6.661   2.122
10421WAT     H131665   2.748   6.662   2.110
10421WAT     H231666   2.619   6.627   2.039
10422WAT      O31667   7.272   1.868   0.739
10422WAT     H131668   7.246   1.847   0.649
10422WAT     H231669   7.218   1.812   0.793
10423WAT      O31670   2.549   0.379   3.470
10423WAT     H131671   2.548   0.284   3.454
10423WAT     H231672   2.597   0.415   3.395
10424WAT      O31673   2.464   1.109   3.709
10424WAT     H131674   2.480   1.195   3.668
10424WAT     H231675   2.368   1.105   3.718
10425WAT      O31676   4.968   2.880   0.671
10425WAT     H131677   5.016   2.916   0.745
10425WAT     H231678   5.035   2.870   0.603
10426WAT      O31679   6.927   1.074   2.893
10426WAT     H131680   7.014   1.081   2.855
10426WAT     H231681   6.899   0.985   2.874
10427WAT      O31682   2.936   3.697   5.841
10427WAT     H131683   2.906   3.606   5.843
10427WAT     H231684   2.858   3.748   5.821
10428WAT      O31685   4.553   6.509   5.514
10428WAT     H131686   4.607   6.430   5.501
10428WAT     H231687   4.573   6.538   5.603
10429WAT      O31688   1.570   3.410   0.469
10429WAT     H131689   1.598   3.355   0.396
10429WAT     H231690   1.650   3.427   0.518
10430WAT      O31691   6.832   4.904   1.059
10430WAT     H131692   6.843   4.846   1.134
10430WAT     H231693   6.799   4.986   1.096
10431WAT      O31694   0.667   5.650   0.979
10431WAT     H131695   0.750   5.654   0.931
10431WAT     H231696   0.677   5.716   1.048
10432WAT      O31697   4.719   1.213   1.194
10432WAT     H131698   4.719   1.295   1.145
10432WAT     H231699   4.646   1.221   1.255
10433WAT      O31700   1.370   3.544   1.667
10433WAT     H131701   1.455   3.503   1.681
10433WAT     H231702   1.336   3.501   1.588
10434WAT      O31703   3.621   1.647   4.922
10434WAT     H131704   3.645   1.713   4.856
10434WAT     H231705   3.571   1.582   4.874
10435WAT      O31706   6.512   0.799   1.150
10435WAT     H131707   6.433   0.807   1.203
10435WAT     H231708   6.498   0.721   1.096
10436WAT      O31709   6.709   2.370   1.355
10436WAT     H131710   6.781   2.434   1.355
10436WAT     H231711   6.688   2.358   1.263
10437WAT      O31712   6.987   0.458   0.873
10437WAT     H131713   7.067   0.483   0.919
10437WAT     H231714   6.963   0.535   0.823
10438WAT      O31715   1.465   2.097   3.176
10438WAT     H131716   1.529   2.169   3.178
10438WAT     H231717   1.445   2.080   3.268
10439WAT      O31718   3.085   0.236   4.529
10439WAT     H131719   3.140   0.265   4.603
10439WAT     H231720   3.079   0.141   4.539
10440WAT      O31721   1.571   3.485   0.768
10440WAT     H131722   1.646   3.523   0.723
10440WAT     H231723   1.507   3.469   0.698
10441WAT      O31724   0.419   2.244   2.451
10441WAT     H131725   0.434   2.180   2.381
10441WAT     H231726   0.464   2.323   2.422
10442WAT      O31727   1.116   0.830   2.965
10442WAT     H131728   1.028   0.803   2.938
10442WAT     H231729   1.137   0.904   2.909
10443WAT      O31730   5.013   3.986   0.825
10443WAT     H131731   5.026   3.928   0.750
10443WAT     H231732   4.923   3.969   0.853
10444WAT      O31733   0.474   1.493   4.379
10444WAT     H131734   0.489   1.570   4.434
10444WAT     H231735   0.514   1.516   4.295
10445WAT      O31736   6.556   2.578   0.157
10445WAT     H131737   6.547   2.570   0.252
10445WAT     H231738   6.549   2.488   0.124
10446WAT      O31739   3.879   6.323   2.784
10446WAT     H131740   3.833   6.250   2.824
10446WAT     H231741   3.858   6.317   2.691
10447WAT      O31742   4.115   1.406   4.868
10447WAT     H131743   4.044   1.466   4.847
10447WAT     H231744   4.177   1.416   4.795
10448WAT      O31745   3.190   7.186   3.928
10448WAT     H131746   3.204   7.109   3.872
10448WAT     H231747   3.271   7.194   3.978
10449WAT      O31748   1.219   5.719   5.247
10449WAT     H131749   1.305   5.750   5.217
10449WAT     H231750   1.168   5.713   5.167
10450WAT      O31751   2.400   0.490   0.486
10450WAT     H131752   2.359   0.509   0.570
10450WAT     H231753   2.377   0.564   0.430
10451WAT      O31754   6.010   2.071   5.666
10451WAT     H131755   6.006   2.052   5.572
10451WAT     H231756   5.924   2.110   5.685
10452WAT      O31757   3.773   2.195   1.887
10452WAT     H131758   3.707   2.260   1.863
10452WAT     H231759   3.857   2.236   1.866
10453WAT      O31760   4.630   0.699   2.578
10453WAT     H131761   4.660   0.788   2.597
10453WAT     H231762   4.553   0.711   2.522
10454WAT      O31763   7.567   4.796   5.212
10454WAT     H131764   7.635   4.730   5.201
10454WAT     H231765   7.569   4.847   5.132
10455WAT      O31766   1.739   1.418   1.038
10455WAT     H131767   1.689   1.475   0.980
10455WAT     H231768   1.758   1.472   1.114
10456WAT      O31769   1.150   2.091   0.723
10456WAT     H131770   1.133   2.024   0.657
10456WAT     H231771   1.244   2.109   0.716
10457WAT      O31772   5.363   4.200   1.063
10457WAT     H131773   5.416   4.216   0.985
10457WAT     H231774   5.340   4.287   1.095
10458WAT      O31775   4.535   1.710   2.244
10458WAT     H131776   4.448   1.741   2.221
10458WAT     H231777   4.583   1.790   2.267
10459WAT      O31778   3.007   5.398   4.848
10459WAT     H131779   3.003   5.365   4.758
10459WAT     H231780   3.043   5.325   4.898
10460WAT      O31781   7.592   6.082   0.523
10460WAT     H131782   7.548   5.998   0.539
10460WAT     H231783   7.652   6.064   0.451
10461WAT      O31784   6.264   6.145   4.927
10461WAT     H131785   6.173   6.164   4.901
10461WAT     H231786   6.264   6.051   4.946
10462WAT      O31787   6.464   6.839   2.168
10462WAT     H131788   6.489   6.899   2.099
10462WAT     H231789   6.392   6.788   2.131
10463WAT      O31790   5.321   1.617   6.115
10463WAT     H131791   5.390   1.584   6.172
10463WAT     H231792   5.244   1.625   6.172
10464WAT      O31793   5.137   0.216   3.663
10464WAT     H131794   5.116   0.158   3.590
10464WAT     H231795   5.169   0.296   3.621
10465WAT      O31796   4.815   3.988   2.024
10465WAT     H131797   4.772   3.912   1.986
10465WAT     H231798   4.784   4.062   1.970
10466WAT      O31799   0.634   1.443   2.145
10466WAT     H131800   0.551   1.489   2.131
10466WAT     H231801   0.672   1.435   2.057
10467WAT      O31802   1.492   4.375   4.855
10467WAT     H131803   1.446   4.321   4.919
10467WAT     H231804   1.577   4.333   4.846
10468WAT      O31805   3.414   1.050   6.188
10468WAT     H131806   3.455   1.001   6.259
10468WAT     H231807   3.321   1.026   6.193
10469WAT      O31808   0.055   5.005   3.338
10469WAT     H131809   0.088   4.969   3.420
10469WAT     H231810   0.130   5.051   3.301
10470WAT      O31811   5.547   5.927   4.060
10470WAT     H131812   5.498   5.960   4.135
10470WAT     H231813   5.493   5.856   4.026
10471WAT      O31814   5.032   0.605   2.639
10471WAT     H131815   4.962   0.552   2.600
10471WAT     H231816   5.062   0.553   2.713
10472WAT      O31817   6.264   2.035   0.564
10472WAT     H131818   6.359   2.033   0.569
10472WAT     H231819   6.235   2.008   0.651
10473WAT      O31820   7.304   6.597   5.013
10473WAT     H131821   7.303   6.656   5.088
10473WAT     H231822   7.269   6.649   4.940
10474WAT      O31823   7.476   4.197   4.727
10474WAT     H131824   7.446   4.208   4.637
10474WAT     H231825   7.430   4.120   4.759
10475WAT      O31826   2.792   3.502   4.557
10475WAT     H131827   2.699   3.527   4.549
10475WAT     H231828   2.823   3.495   4.467
10476WAT      O31829   0.408   0.620   6.238
10476WAT     H131830   0.383   0.596   6.148
10476WAT     H231831   0.401   0.715   6.240
10477WAT      O31832   6.078   1.296   1.175
10477WAT     H131833   6.172   1.310   1.184
10477WAT     H231834   6.069   1.202   1.159
10478WAT      O31835   4.128   5.339   0.490
10478WAT     H131836   4.124   5.296   0.404
10478WAT     H231837   4.131   5.432   0.470
10479WAT      O31838   4.835   2.989   1.870
10479WAT     H131839   4.800   2.900   1.872
10479WAT     H231840   4.910   2.984   1.811
10480WAT      O31841   2.211   7.145   2.675
10480WAT     H131842   2.254   7.225   2.705
10480WAT     H231843   2.280   7.094   2.635
10481WAT      O31844   6.726   5.130   5.991
10481WAT     H131845   6.752   5.073   5.919
10481WAT     H231846   6.691   5.208   5.948
10482WAT      O31847   7.406   4.075   0.177
10482WAT     H131848   7.345   4.141   0.145
10482WAT     H231849   7.487   4.123   0.194
10483WAT      O31850   5.345   6.966   5.070
10483WAT     H131851   5.260   6.975   5.029
10483WAT     H231852   5.361   6.872   5.074
10484WAT      O31853   4.645   1.555   0.138
10484WAT     H131854   4.608   1.542   0.051
10484WAT     H231855   4.655   1.466   0.173
10485WAT      O31856   2.969   4.774   6.043
10485WAT     H131857   3.021   4.695   6.033
10485WAT     H231858   2.892   4.760   5.988
10486WAT      O31859   3.147   6.738   1.656
10486WAT     H131860   3.085   6.703   1.592
10486WAT     H231861   3.224   6.763   1.604
10487WAT      O31862   4.404   2.234   5.498
10487WAT     H131863   4.424   2.142   5.484
10487WAT     H231864   4.311   2.235   5.520
10488WAT      O31865   6.897   4.507   3.704
10488WAT     H131866   6.865   4.449   3.774
10488WAT     H231867   6.876   4.461   3.623
10489WAT      O31868   6.527   1.048   6.001
10489WAT     H131869   6.595   1.115   6.006
10489WAT     H231870   6.576   0.966   5.991
10490WAT      O31871   1.495   1.825   0.577
10490WAT     H131872   1.530   1.876   0.504
10490WAT     H231873   1.492   1.735   0.544
10491WAT      O31874   3.852   0.597   4.070
10491WAT     H131875   3.914   0.670   4.066
10491WAT     H231876   3.881   0.538   4.001
10492WAT      O31877   6.354   3.080   1.611
10492WAT     H131878   6.274   3.125   1.639
10492WAT     H231879   6.322   3.005   1.561
10493WAT      O31880   7.603   4.149   2.218
10493WAT     H131881   7.689   4.153   2.176
10493WAT     H231882   7.559   4.229   2.191
10494WAT      O31883   7.570   0.372   5.191
10494WAT     H131884   7.555   0.336   5.103
10494WAT     H231885   7.611   0.457   5.176
10495WAT      O31886   6.407   3.979   4.101
10495WAT     H131887   6.332   3.974   4.159
10495WAT     H231888   6.420   4.072   4.086
10496WAT      O31889   0.268   0.488   4.477
10496WAT     H131890   0.347   0.531   4.510
10496WAT     H231891   0.299   0.428   4.409
10497WAT      O31892   0.951   6.137   4.482
10497WAT     H131893   0.950   6.129   4.387
10497WAT     H231894   0.906   6.059   4.514
10498WAT      O31895   5.387   3.090   3.294
10498WAT     H131896   5.414   3.066   3.382
10498WAT     H231897   5.457   3.059   3.237
10499WAT      O31898   1.633   4.270   5.565
10499WAT     H131899   1.565   4.249   5.629
10499WAT     H231900   1.614   4.214   5.491
10500WAT      O31901   4.053   5.018   4.341
10500WAT     H131902   4.068   4.931   4.303
10500WAT     H231903   4.085   5.079   4.275
10501WAT      O31904   4.341   5.217   3.000
10501WAT     H131905   4.408   5.155   2.972
10501WAT     H231906   4.304   5.249   2.918
10502WAT      O31907   3.282   2.950   0.881
10502WAT     H131908   3.334   2.871   0.899
10502WAT     H231909   3.216   2.921   0.818
10503WAT      O31910   3.376   2.932   2.280
10503WAT     H131911   3.459   2.979   2.281
10503WAT     H231912   3.315   2.992   2.237
10504WAT      O31913   4.947   1.994   0.764
10504WAT     H131914   4.895   1.951   0.696
10504WAT     H231915   4.980   1.923   0.818
10505WAT      O31916   0.240   0.691   2.538
10505WAT     H131917   0.151   0.704   2.506
10505WAT     H231918   0.255   0.764   2.598
10506WAT      O31919   5.216   3.615   6.220
10506WAT     H131920   5.122   3.598   6.224
10506WAT     H231921   5.257   3.534   6.250
10507WAT      O31922   1.661   2.851   3.965
10507WAT     H131923   1.697   2.774   4.009
10507WAT     H231924   1.596   2.815   3.903
10508WAT      O31925   4.324   6.585   1.521
10508WAT     H131926   4.251   6.623   1.569
10508WAT     H231927   4.307   6.607   1.430
10509WAT      O31928   1.388   5.066   0.485
10509WAT     H131929   1.447   5.104   0.419
10509WAT     H231930   1.306   5.112   0.473
10510WAT      O31931   5.363   0.785   0.167
10510WAT     H131932   5.344   0.811   0.077
10510WAT     H231933   5.459   0.788   0.172
10511WAT      O31934   5.484   5.191   5.680
10511WAT     H131935   5.534   5.268   5.707
10511WAT     H231936   5.536   5.153   5.609
10512WAT      O31937   3.739   3.267   1.166
10512WAT     H131938   3.669   3.312   1.118
10512WAT     H231939   3.707   3.259   1.255
10513WAT      O31940   6.308   0.270   4.179
10513WAT     H131941   6.280   0.179   4.185
10513WAT     H231942   6.387   0.267   4.125
10514WAT      O31943   5.068   4.502   3.061
10514WAT     H131944   5.063   4.424   3.006
10514WAT     H231945   4.978   4.517   3.091
10515WAT      O31946   1.269   5.300   0.677
10515WAT     H131947   1.306   5.229   0.729
10515WAT     H231948   1.345   5.352   0.650
10516WAT      O31949   4.687   0.990   2.989
10516WAT     H131950   4.762   1.007   3.046
10516WAT     H231951   4.720   1.009   2.900
10517WAT      O31952   3.516   3.366   5.429
10517WAT     H131953   3.484   3.438   5.484
10517WAT     H231954   3.593   3.334   5.476
10518WAT      O31955   5.163   0.078   5.815
10518WAT     H131956   5.102   0.052   5.747
10518WAT     H231957   5.109   0.087   5.894
10519WAT      O31958   4.188   3.021   4.766
10519WAT     H131959   4.125   2.949   4.759
10519WAT     H231960   4.263   2.993   4.713
10520WAT      O31961   6.147   1.589   4.233
10520WAT     H131962   6.207   1.546   4.173
10520WAT     H231963   6.184   1.572   4.320
10521WAT      O31964   5.468   0.346   4.849
10521WAT     H131965   5.411   0.360   4.773
10521WAT     H231966   5.556   0.363   4.816
10522WAT      O31967   7.410   1.158   2.592
10522WAT     H131968   7.418   1.249   2.563
10522WAT     H231969   7.335   1.159   2.652
10523WAT      O31970   4.966   1.676   2.036
10523WAT     H131971   4.946   1.770   2.033
10523WAT     H231972   4.917   1.644   2.112
10524WAT      O31973   4.676   1.621   2.893
10524WAT     H131974   4.585   1.649   2.889
10524WAT     H231975   4.676   1.531   2.860
10525WAT      O31976   2.151   5.244   3.653
10525WAT     H131977   2.238   5.205   3.662
10525WAT     H231978   2.164   5.320   3.596
10526WAT      O31979   6.939   3.902   4.362
10526WAT     H131980   6.855   3.856   4.359
10526WAT     H231981   7.005   3.833   4.363
10527WAT      O31982   0.942   5.172   5.333
10527WAT     H131983   0.885   5.095   5.342
10527WAT     H231984   0.975   5.166   5.243
10528WAT      O31985   4.905   5.514   4.960
10528WAT     H131986   4.876   5.430   4.993
10528WAT     H231987   4.984   5.494   4.909
10529WAT      O31988   5.712   4.458   1.440
10529WAT     H131989   5.679   4.510   1.366
10529WAT     H231990   5.807   4.470   1.436
10530WAT      O31991   2.491   0.337   4.925
10530WAT     H131992   2.545   0.285   4.865
10530WAT     H231993   2.403   0.303   4.914
10531WAT      O31994   1.367   3.778   1.422
10531WAT     H131995   1.276   3.779   1.452
10531WAT     H231996   1.402   3.695   1.451
10532WAT      O31997   6.418   1.075   1.659
10532WAT     H131998   6.333   1.107   1.631
10532WAT     H231999   6.481   1.133   1.617
10533WAT      O32000   0.455   6.873   3.803
10533WAT     H132001   0.367   6.872   3.765
10533WAT     H232002   0.477   6.780   3.814
10534WAT      O32003   0.039   0.073   4.489
10534WAT     H132004   0.103   0.081   4.559
10534WAT     H232005   0.046  -0.018   4.460
10535WAT      O32006   7.096   4.784   3.148
10535WAT     H132007   7.016   4.757   3.102
10535WAT     H232008   7.071   4.784   3.241
10536WAT      O32009   7.612   6.177   0.023
10536WAT     H132010   7.645   6.145  -0.061
10536WAT     H232011   7.556   6.106   0.056
10537WAT      O32012   0.985   3.782   4.607
10537WAT     H132013   1.035   3.718   4.557
10537WAT     H232014   0.977   3.857   4.549
10538WAT      O32015   5.862   3.727   6.014
10538WAT     H132016   5.953   3.746   6.036
10538WAT     H232017   5.833   3.804   5.965
10539WAT      O32018   4.088   6.855   4.073
10539WAT     H132019   4.029   6.795   4.118
10539WAT     H232020   4.031   6.928   4.046
10540WAT      O32021   2.486   3.098   5.224
10540WAT     H132022   2.529   3.051   5.152
10540WAT     H232023   2.534   3.181   5.229
10541WAT      O32024   0.060   5.637   0.970
10541WAT     H132025   0.060   5.585   0.889
10541WAT     H232026  -0.011   5.601   1.022
10542WAT      O32027   1.120   6.533   5.165
10542WAT     H132028   1.197   6.505   5.115
10542WAT     H232029   1.048   6.485   5.125
10543WAT      O32030   1.369   4.815   0.637
10543WAT     H132031   1.454   4.772   0.633
10543WAT     H232032   1.375   4.886   0.573
10544WAT      O32033   2.988   1.318   1.741
10544WAT     H132034   3.071   1.357   1.768
10544WAT     H232035   2.933   1.323   1.819
10545WAT      O32036   4.735   1.760   4.684
10545WAT     H132037   4.816   1.715   4.709
10545WAT     H232038   4.764   1.829   4.625
10546WAT      O32039   5.645   3.870   0.227
10546WAT     H132040   5.723   3.867   0.172
10546WAT     H232041   5.575   3.899   0.168
10547WAT      O32042   2.398   3.589   0.725
10547WAT     H132043   2.372   3.674   0.762
10547WAT     H232044   2.321   3.533   0.736
10548WAT      O32045   6.166   4.960   2.049
10548WAT     H132046   6.253   4.992   2.026
10548WAT     H232047   6.162   4.970   2.144
10549WAT      O32048   0.156   1.967   5.227
10549WAT     H132049   0.192   2.045   5.186
10549WAT     H232050   0.061   1.980   5.224
10550WAT      O32051   6.181   4.610   3.242
10550WAT     H132052   6.161   4.529   3.288
10550WAT     H232053   6.139   4.601   3.157
10551WAT      O32054   2.636   0.183   2.129
10551WAT     H132055   2.682   0.262   2.159
10551WAT     H232056   2.569   0.167   2.195
10552WAT      O32057   3.884   2.264   0.212
10552WAT     H132058   3.887   2.359   0.218
10552WAT     H232059   3.968   2.240   0.172
10553WAT      O32060   1.613   4.649   1.897
10553WAT     H132061   1.568   4.731   1.878
10553WAT     H232062   1.690   4.650   1.841
10554WAT      O32063   3.787   5.489   1.258
10554WAT     H132064   3.720   5.504   1.324
10554WAT     H232065   3.867   5.527   1.295
10555WAT      O32066   5.066   2.856   3.387
10555WAT     H132067   5.066   2.762   3.367
10555WAT     H232068   5.063   2.898   3.301
10556WAT      O32069   2.937   4.823   4.408
10556WAT     H132070   2.941   4.856   4.318
10556WAT     H232071   2.856   4.772   4.411
10557WAT      O32072   2.633   1.127   4.325
10557WAT     H132073   2.613   1.063   4.393
10557WAT     H232074   2.564   1.192   4.330
10558WAT      O32075   5.986   2.016   3.407
10558WAT     H132076   5.982   2.111   3.412
10558WAT     H232077   5.901   1.987   3.440
10559WAT      O32078   3.720   6.995   1.799
10559WAT     H132079   3.646   6.949   1.761
10559WAT     H232080   3.783   7.005   1.728
10560WAT      O32081   6.664   3.485   3.670
10560WAT     H132082   6.758   3.499   3.685
10560WAT     H232083   6.640   3.552   3.607
10561WAT      O32084   2.240   5.201   4.462
10561WAT     H132085   2.273   5.116   4.433
10561WAT     H232086   2.299   5.264   4.422
10562WAT      O32087   1.391   0.120   4.296
10562WAT     H132088   1.332   0.087   4.229
10562WAT     H232089   1.346   0.196   4.333
10563WAT      O32090   2.256   0.179   4.098
10563WAT     H132091   2.198   0.207   4.169
10563WAT     H232092   2.299   0.260   4.069
10564WAT      O32093   4.824   0.359   4.641
10564WAT     H132094   4.883   0.345   4.567
10564WAT     H232095   4.815   0.273   4.682
10565WAT      O32096   2.322   1.517   2.934
10565WAT     H132097   2.367   1.571   2.870
10565WAT     H232098   2.243   1.486   2.890
10566WAT      O32099   3.962   2.843   4.727
10566WAT     H132100   3.941   2.867   4.637
10566WAT     H232101   3.881   2.859   4.776
10567WAT      O32102   4.208   6.645   4.634
10567WAT     H132103   4.195   6.568   4.579
10567WAT     H232104   4.293   6.680   4.607
10568WAT      O32105   7.584   0.846   3.065
10568WAT     H132106   7.606   0.901   3.141
10568WAT     H232107   7.576   0.908   2.993
10569WAT      O32108   1.954   0.103   2.822
10569WAT     H132109   1.906   0.145   2.893
10569WAT     H232110   1.985   0.021   2.860
10570WAT      O32111   3.014   3.348   0.493
10570WAT     H132112   3.064   3.430   0.491
10570WAT     H232113   3.037   3.304   0.411
10571WAT      O32114   4.531   2.379   3.225
10571WAT     H132115   4.481   2.412   3.150
10571WAT     H232116   4.621   2.405   3.208
10572WAT      O32117   3.984   2.560   2.616
10572WAT     H132118   3.919   2.594   2.678
10572WAT     H232119   4.000   2.633   2.556
10573WAT      O32120   1.320   1.969   4.978
10573WAT     H132121   1.296   1.877   4.990
10573WAT     H232122   1.369   1.992   5.057
10574WAT      O32123   2.957   5.455   1.355
10574WAT     H132124   2.876   5.433   1.308
10574WAT     H232125   3.026   5.443   1.291
10575WAT      O32126   4.438   2.770   1.782
10575WAT     H132127   4.370   2.815   1.831
10575WAT     H232128   4.513   2.768   1.842
10576WAT      O32129   4.136   4.556   1.407
10576WAT     H132130   4.122   4.624   1.341
10576WAT     H232131   4.049   4.520   1.424
10577WAT      O32132   0.607   0.697   0.951
10577WAT     H132133   0.645   0.622   0.995
10577WAT     H232134   0.620   0.770   1.012
10578WAT      O32135   3.342   1.727   4.241
10578WAT     H132136   3.308   1.749   4.154
10578WAT     H232137   3.426   1.685   4.224
10579WAT      O32138   0.559   5.997   3.050
10579WAT     H132139   0.631   5.934   3.048
10579WAT     H232140   0.509   5.980   2.970
10580WAT      O32141   0.875   6.539   6.080
10580WAT     H132142   0.887   6.542   5.985
10580WAT     H232143   0.812   6.468   6.094
10581WAT      O32144   6.679   3.798   3.227
10581WAT     H132145   6.706   3.882   3.263
10581WAT     H232146   6.653   3.817   3.137
10582WAT      O32147   4.157   1.595   1.873
10582WAT     H132148   4.229   1.657   1.885
10582WAT     H232149   4.090   1.624   1.935
10583WAT      O32150   2.275   0.364   1.948
10583WAT     H132151   2.368   0.352   1.927
10583WAT     H232152   2.229   0.325   1.874
10584WAT      O32153   5.832   6.310   3.506
10584WAT     H132154   5.830   6.333   3.599
10584WAT     H232155   5.757   6.355   3.468
10585WAT      O32156   0.224   6.832   3.717
10585WAT     H132157   0.179   6.853   3.635
10585WAT     H232158   0.166   6.866   3.785
10586WAT      O32159   7.167   4.741   5.085
10586WAT     H132160   7.083   4.695   5.090
10586WAT     H232161   7.188   4.743   4.992
10587WAT      O32162   5.225   1.486   5.829
10587WAT     H132163   5.213   1.402   5.785
10587WAT     H232164   5.145   1.535   5.811
10588WAT      O32165   2.950   2.614   1.384
10588WAT     H132166   2.988   2.697   1.410
10588WAT     H232167   2.991   2.594   1.300
10589WAT      O32168   0.028   1.964   5.714
10589WAT     H132169  -0.048   2.021   5.704
10589WAT     H232170  -0.006   1.875   5.699
10590WAT      O32171   0.951   2.750   0.088
10590WAT     H132172   1.044   2.725   0.094
10590WAT     H232173   0.904   2.666   0.096
10591WAT      O32174   1.787   0.527   2.161
10591WAT     H132175   1.843   0.494   2.091
10591WAT     H232176   1.745   0.449   2.198
10592WAT      O32177   7.624   5.412   2.382
10592WAT     H132178   7.673   5.477   2.332
10592WAT     H232179   7.587   5.354   2.315
10593WAT      O32180   0.753   6.574   1.894
10593WAT     H132181   0.822   6.512   1.870
10593WAT     H232182   0.798   6.647   1.935
10594WAT      O32183   4.253   0.565   0.679
10594WAT     H132184   4.204   0.587   0.600
10594WAT     H232185   4.302   0.486   0.656
10595WAT      O32186   2.042   0.081   1.426
10595WAT     H132187   2.007   0.118   1.344
10595WAT     H232188   2.066  -0.009   1.404
10596WAT      O32189   5.636   0.928   0.791
10596WAT     H132190   5.699   0.859   0.813
10596WAT     H232191   5.556   0.880   0.769
10597WAT      O32192   6.666   6.139   0.595
10597WAT     H132193   6.664   6.066   0.656
10597WAT     H232194   6.574   6.155   0.573
10598WAT      O32195   1.060   3.832   5.673
10598WAT     H132196   1.047   3.761   5.610
10598WAT     H232197   1.152   3.856   5.662
10599WAT      O32198   2.801   4.489   3.725
10599WAT     H132199   2.849   4.433   3.786
10599WAT     H232200   2.719   4.508   3.770
10600WAT      O32201   5.924   6.543   0.152
10600WAT     H132202   6.005   6.556   0.103
10600WAT     H232203   5.867   6.494   0.093
10601WAT      O32204   7.544   3.622   0.334
10601WAT     H132205   7.507   3.656   0.253
10601WAT     H232206   7.610   3.558   0.307
10602WAT      O32207   7.406   7.046   5.091
10602WAT     H132208   7.339   7.111   5.069
10602WAT     H232209   7.463   7.043   5.015
10603WAT      O32210   3.242   5.123   3.022
10603WAT     H132211   3.201   5.210   3.024
10603WAT     H232212   3.280   5.116   2.935
10604WAT      O32213   4.672   3.839   4.492
10604WAT     H132214   4.722   3.864   4.569
10604WAT     H232215   4.697   3.902   4.425
10605WAT      O32216   2.274   6.022   1.488
10605WAT     H132217   2.198   6.078   1.499
10605WAT     H232218   2.288   5.982   1.574
10606WAT      O32219   2.601   7.043   0.833
10606WAT     H132220   2.639   6.999   0.757
10606WAT     H232221   2.666   7.108   0.859
10607WAT      O32222  -0.003   3.470   4.981
10607WAT     H132223   0.066   3.529   4.951
10607WAT     H232224   0.043   3.390   5.007
10608WAT      O32225   6.995   5.172   1.221
10608WAT     H132226   7.052   5.123   1.161
10608WAT     H232227   6.987   5.115   1.298
10609WAT      O32228   3.937   1.798   2.690
10609WAT     H132229   4.011   1.845   2.653
10609WAT     H232230   3.877   1.787   2.616
10610WAT      O32231   7.485   3.464   5.786
10610WAT     H132232   7.573   3.491   5.813
10610WAT     H232233   7.492   3.456   5.691
10611WAT      O32234   3.559   6.934   2.359
10611WAT     H132235   3.525   6.881   2.287
10611WAT     H232236   3.491   6.998   2.377
10612WAT      O32237   0.381   0.828   1.240
10612WAT     H132238   0.474   0.834   1.220
10612WAT     H232239   0.348   0.917   1.231
10613WAT      O32240   2.416   0.219   2.305
10613WAT     H132241   2.381   0.307   2.319
10613WAT     H232242   2.340   0.166   2.283
10614WAT      O32243   2.202   2.428   3.788
10614WAT     H132244   2.186   2.506   3.734
10614WAT     H232245   2.276   2.384   3.746
10615WAT      O32246   2.820   6.963   1.601
10615WAT     H132247   2.906   6.981   1.563
10615WAT     H232248   2.831   6.979   1.695
10616WAT      O32249   1.495   3.590   4.194
10616WAT     H132250   1.585   3.596   4.224
10616WAT     H232251   1.497   3.625   4.104
10617WAT      O32252   7.469   4.152   3.951
10617WAT     H132253   7.448   4.220   3.888
10617WAT     H232254   7.544   4.186   4.000
10618WAT      O32255   7.122   0.202   3.555
10618WAT     H132256   7.126   0.280   3.500
10618WAT     H232257   7.035   0.165   3.539
10619WAT      O32258   4.915   6.808   5.834
10619WAT     H132259   4.846   6.871   5.811
10619WAT     H232260   4.888   6.773   5.919
10620WAT      O32261   5.357   1.473   4.199
10620WAT     H132262   5.376   1.387   4.236
10620WAT     H232263   5.294   1.512   4.260
10621WAT      O32264   2.493   0.974   5.904
10621WAT     H132265   2.404   0.990   5.936
10621WAT     H232266   2.537   1.058   5.910
10622WAT      O32267   1.308   7.128   4.022
10622WAT     H132268   1.218   7.159   4.011
10622WAT     H232269   1.335   7.163   4.106
10623WAT      O32270   7.409   3.038   3.116
10623WAT     H132271   7.469   3.108   3.089
10623WAT     H232272   7.443   3.009   3.201
10624WAT      O32273   2.763   6.698   5.685
10624WAT     H132274   2.829   6.635   5.715
10624WAT     H232275   2.755   6.681   5.592
10625WAT      O32276   3.877   5.621   2.408
10625WAT     H132277   3.908   5.656   2.325
10625WAT     H232278   3.815   5.687   2.440
10626WAT      O32279   2.877   0.689   6.013
10626WAT     H132280   2.783   0.709   6.008
10626WAT     H232281   2.880   0.597   6.038
10627WAT      O32282   3.510   1.908   2.006
10627WAT     H132283   3.590   1.866   2.038
10627WAT     H232284   3.511   1.892   1.911
10628WAT      O32285   1.880   0.015   5.736
10628WAT     H132286   1.921   0.068   5.805
10628WAT     H232287   1.846   0.080   5.674
10629WAT      O32288   3.084   4.899   1.826
10629WAT     H132289   3.016   4.832   1.824
10629WAT     H232290   3.061   4.960   1.756
10630WAT      O32291   7.581   5.646   1.285
10630WAT     H132292   7.622   5.732   1.280
10630WAT     H232293   7.503   5.653   1.229
10631WAT      O32294   6.529   5.546   5.596
10631WAT     H132295   6.517   5.511   5.684
10631WAT     H232296   6.617   5.583   5.596
10632WAT      O32297   7.527   4.189   5.115
10632WAT     H132298   7.524   4.276   5.076
10632WAT     H232299   7.486   4.200   5.201
10633WAT      O32300   4.302   5.672   3.088
10633WAT     H132301   4.367   5.669   3.157
10633WAT     H232302   4.246   5.596   3.104
10634WAT      O32303   7.348   5.658   4.794
10634WAT     H132304   7.316   5.594   4.730
10634WAT     H232305   7.269   5.700   4.827
10635WAT      O32306   3.781   6.888   2.218
10635WAT     H132307   3.783   6.792   2.214
10635WAT     H232308   3.717   6.907   2.286
10636WAT      O32309   4.979   0.136   5.178
10636WAT     H132310   4.952   0.054   5.218
10636WAT     H232311   5.003   0.193   5.251
10637WAT      O32312   6.654   4.892   3.157
10637WAT     H132313   6.639   4.883   3.063
10637WAT     H232314   6.730   4.837   3.175
10638WAT      O32315   1.205   2.039   5.495
10638WAT     H132316   1.254   2.106   5.448
10638WAT     H232317   1.219   1.959   5.445
10639WAT      O32318   5.260   6.660   0.428
10639WAT     H132319   5.319   6.627   0.360
10639WAT     H232320   5.175   6.667   0.385
10640WAT      O32321   2.486   5.527   3.752
10640WAT     H132322   2.393   5.535   3.773
10640WAT     H232323   2.506   5.604   3.698
10641WAT      O32324   7.314   0.803   0.487
10641WAT     H132325   7.327   0.709   0.483
10641WAT     H232326   7.249   0.821   0.418
10642WAT      O32327   6.903   3.975   0.690
10642WAT     H132328   6.948   4.018   0.617
10642WAT     H232329   6.880   4.046   0.750
10643WAT      O32330   4.494   2.350   2.776
10643WAT     H132331   4.587   2.374   2.780
10643WAT     H232332   4.494   2.261   2.741
10644WAT      O32333   6.818   1.288   4.108
10644WAT     H132334   6.751   1.325   4.166
10644WAT     H232335   6.827   1.197   4.137
10645WAT      O32336   0.513   2.558   0.954
10645WAT     H132337   0.432   2.603   0.977
10645WAT     H232338   0.487   2.466   0.942
10646WAT      O32339   1.885   5.201   5.414
10646WAT     H132340   1.915   5.148   5.340
10646WAT     H232341   1.874   5.137   5.485
10647WAT      O32342   4.259   6.477   0.615
10647WAT     H132343   4.269   6.543   0.546
10647WAT     H232344   4.259   6.393   0.567
10648WAT      O32345   3.265   3.333   2.200
10648WAT     H132346   3.312   3.303   2.122
10648WAT     H232347   3.333   3.376   2.253
10649WAT      O32348   4.027   0.578   2.312
10649WAT     H132349   4.026   0.655   2.255
10649WAT     H232350   4.098   0.524   2.278
10650WAT      O32351   1.598   5.865   3.915
10650WAT     H132352   1.607   5.914   3.833
10650WAT     H232353   1.599   5.773   3.889
10651WAT      O32354   2.065   4.104   0.468
10651WAT     H132355   2.086   4.182   0.416
10651WAT     H232356   1.984   4.127   0.514
10652WAT      O32357   6.063   0.190   2.346
10652WAT     H132358   6.126   0.138   2.297
10652WAT     H232359   5.980   0.174   2.302
10653WAT      O32360   3.851   7.121   3.745
10653WAT     H132361   3.765   7.088   3.769
10653WAT     H232362   3.860   7.099   3.652
10654WAT      O32363   3.556   2.891   2.938
10654WAT     H132364   3.531   2.888   2.846
10654WAT     H232365   3.577   2.800   2.960
10655WAT      O32366   4.491   6.741   5.084
10655WAT     H132367   4.459   6.831   5.077
10655WAT     H232368   4.468   6.701   5.000
10656WAT      O32369   6.315   1.128   4.843
10656WAT     H132370   6.258   1.079   4.784
10656WAT     H232371   6.265   1.137   4.924
10657WAT      O32372   5.594   7.134   2.741
10657WAT     H132373   5.586   7.111   2.649
10657WAT     H232374   5.527   7.082   2.785
10658WAT      O32375   3.937   6.000   4.940
10658WAT     H132376   3.854   5.980   4.896
10658WAT     H232377   4.003   5.960   4.884
10659WAT      O32378   5.738   3.035   0.528
10659WAT     H132379   5.718   2.958   0.475
10659WAT     H232380   5.697   3.017   0.612
10660WAT      O32381   3.320   2.084   5.440
10660WAT     H132382   3.412   2.070   5.461
10660WAT     H232383   3.272   2.049   5.515
10661WAT      O32384   5.719   4.639   3.972
10661WAT     H132385   5.656   4.567   3.980
10661WAT     H232386   5.787   4.604   3.914
10662WAT      O32387   6.877   6.933   5.282
10662WAT     H132388   6.894   6.880   5.360
10662WAT     H232389   6.792   6.974   5.299
10663WAT      O32390   1.376   3.924   2.128
10663WAT     H132391   1.391   3.924   2.034
10663WAT     H232392   1.389   4.015   2.154
10664WAT      O32393   7.413   4.576   4.075
10664WAT     H132394   7.333   4.525   4.071
10664WAT     H232395   7.478   4.516   4.113
10665WAT      O32396   3.990   4.194   3.575
10665WAT     H132397   4.027   4.263   3.521
10665WAT     H232398   3.895   4.202   3.563
10666WAT      O32399   0.597   1.326   3.387
10666WAT     H132400   0.607   1.263   3.316
10666WAT     H232401   0.516   1.299   3.431
10667WAT      O32402   7.019   1.761   0.790
10667WAT     H132403   6.998   1.736   0.700
10667WAT     H232404   6.938   1.800   0.823
10668WAT      O32405   2.284   6.900   6.210
10668WAT     H132406   2.239   6.971   6.165
10668WAT     H232407   2.356   6.944   6.257
10669WAT      O32408   0.155   1.388   6.212
10669WAT     H132409   0.077   1.389   6.267
10669WAT     H232410   0.131   1.335   6.136
10670WAT      O32411   6.206   4.833   4.832
10670WAT     H132412   6.159   4.778   4.768
10670WAT     H232413   6.249   4.899   4.779
10671WAT      O32414   2.287   4.637   0.989
10671WAT     H132415   2.264   4.547   0.969
10671WAT     H232416   2.204   4.679   1.011
10672WAT      O32417   2.335   6.211   4.321
10672WAT     H132418   2.252   6.256   4.338
10672WAT     H232419   2.342   6.210   4.225
10673WAT      O32420   6.329   6.389   2.042
10673WAT     H132421   6.289   6.328   2.104
10673WAT     H232422   6.341   6.337   1.962
10674WAT      O32423   0.964   0.854   2.247
10674WAT     H132424   0.964   0.774   2.195
10674WAT     H232425   1.023   0.834   2.320
10675WAT      O32426   5.534   6.609   1.156
10675WAT     H132427   5.510   6.620   1.249
10675WAT     H232428   5.498   6.524   1.132
10676WAT      O32429   4.396   0.332   0.588
10676WAT     H132430   4.358   0.298   0.506
10676WAT     H232431   4.490   0.334   0.572
10677WAT      O32432   2.283   1.671   1.500
10677WAT     H132433   2.350   1.665   1.569
10677WAT     H232434   2.321   1.727   1.434
10678WAT      O32435   6.347   1.542   3.726
10678WAT     H132436   6.329   1.586   3.643
10678WAT     H232437   6.417   1.481   3.706
10679WAT      O32438   6.221   3.604   2.454
10679WAT     H132439   6.236   3.603   2.360
10679WAT     H232440   6.178   3.521   2.473
10680WAT      O32441   6.450   4.579   6.187
10680WAT     H132442   6.423   4.656   6.137
10680WAT     H232443   6.479   4.516   6.121
10681WAT      O32444   4.489   5.574   6.090
10681WAT     H132445   4.493   5.585   5.995
10681WAT     H232446   4.571   5.611   6.122
10682WAT      O32447   5.573   0.540   3.356
10682WAT     H132448   5.514   0.565   3.285
10682WAT     H232449   5.536   0.458   3.390
10683WAT      O32450   4.425   0.845   4.935
10683WAT     H132451   4.405   0.773   4.875
10683WAT     H232452   4.485   0.902   4.886
10684WAT      O32453   0.501   2.515   3.765
10684WAT     H132454   0.506   2.505   3.670
10684WAT     H232455   0.460   2.600   3.778
10685WAT      O32456   4.770   2.229   5.477
10685WAT     H132457   4.700   2.288   5.505
10685WAT     H232458   4.745   2.144   5.513
10686WAT      O32459   0.083   5.227   0.375
10686WAT     H132460   0.027   5.204   0.301
10686WAT     H232461   0.168   5.189   0.354
10687WAT      O32462   4.970   2.909   5.393
10687WAT     H132463   5.037   2.939   5.332
10687WAT     H232464   4.981   2.814   5.397
10688WAT      O32465   1.682   5.569   3.209
10688WAT     H132466   1.687   5.637   3.143
10688WAT     H232467   1.771   5.535   3.217
10689WAT      O32468   1.920   7.195   0.811
10689WAT     H132469   1.982   7.268   0.819
10689WAT     H232470   1.946   7.151   0.730
10690WAT      O32471   5.138   3.126   3.210
10690WAT     H132472   5.224   3.095   3.238
10690WAT     H232473   5.145   3.134   3.115
10691WAT      O32474   2.539   0.318   1.896
10691WAT     H132475   2.611   0.360   1.849
10691WAT     H232476   2.577   0.293   1.980
10692WAT      O32477   3.893   4.580   3.470
10692WAT     H132478   3.862   4.646   3.408
10692WAT     H232479   3.970   4.543   3.429
10693WAT      O32480   0.276   1.108   0.123
10693WAT     H132481   0.287   1.177   0.059
10693WAT     H232482   0.350   1.049   0.108
10694WAT      O32483   2.878   6.926   4.838
10694WAT     H132484   2.823   6.851   4.816
10694WAT     H232485   2.856   6.947   4.928
10695WAT      O32486   4.874   4.508   5.384
10695WAT     H132487   4.860   4.503   5.290
10695WAT     H232488   4.832   4.589   5.411
10696WAT      O32489   2.166   1.046   2.571
10696WAT     H132490   2.237   1.097   2.532
10696WAT     H232491   2.102   1.035   2.501
10697WAT      O32492   6.982   3.697   2.269
10697WAT     H132493   6.888   3.684   2.284
10697WAT     H232494   6.989   3.783   2.229
10698WAT      O32495   0.493   1.044   4.779
10698WAT     H132496   0.553   1.108   4.743
10698WAT     H232497   0.407   1.084   4.772
10699WAT      O32498   0.205   6.189   4.440
10699WAT     H132499   0.154   6.117   4.477
10699WAT     H232500   0.223   6.163   4.350
10700WAT      O32501   6.931   0.499   1.840
10700WAT     H132502   6.908   0.592   1.830
10700WAT     H232503   6.865   0.453   1.788
10701WAT      O32504   7.370   2.655   4.367
10701WAT     H132505   7.348   2.585   4.428
10701WAT     H232506   7.345   2.621   4.281
10702WAT      O32507   6.247   6.940   4.072
10702WAT     H132508   6.187   6.910   4.004
10702WAT     H232509   6.325   6.967   4.025
10703WAT      O32510   7.320   0.566   3.043
10703WAT     H132511   7.230   0.545   3.015
10703WAT     H232512   7.356   0.615   2.969
10704WAT      O32513   0.489   3.906   2.014
10704WAT     H132514   0.459   3.968   1.947
10704WAT     H232515   0.449   3.823   1.989
10705WAT      O32516   0.551   6.096   5.019
10705WAT     H132517   0.572   6.183   4.983
10705WAT     H232518   0.457   6.087   5.007
10706WAT      O32519   5.212   4.750   0.224
10706WAT     H132520   5.182   4.841   0.222
10706WAT     H232521   5.191   4.720   0.312
10707WAT      O32522   4.454   3.918   0.042
10707WAT     H132523   4.449   3.943   0.134
10707WAT     H232524   4.398   3.980  -0.004
10708WAT      O32525   0.555   1.156   0.591
10708WAT     H132526   0.637   1.196   0.620
10708WAT     H232527   0.569   1.139   0.498
10709WAT      O32528   2.726   1.957   2.221
10709WAT     H132529   2.668   2.032   2.212
10709WAT     H232530   2.694   1.910   2.298
10710WAT      O32531   5.943   2.046   4.244
10710WAT     H132532   5.956   2.000   4.327
10710WAT     H232533   5.953   1.979   4.177
10711WAT      O32534   4.569   5.780   2.104
10711WAT     H132535   4.626   5.802   2.030
10711WAT     H232536   4.490   5.743   2.063
10712WAT      O32537   2.151   1.685   0.213
10712WAT     H132538   2.079   1.624   0.226
10712WAT     H232539   2.108   1.769   0.195
10713WAT      O32540   1.365   3.563   3.065
10713WAT     H132541   1.386   3.501   2.995
10713WAT     H232542   1.384   3.514   3.146
10714WAT      O32543   5.922   5.009   5.296
10714WAT     H132544   5.868   4.981   5.222
10714WAT     H232545   6.000   4.952   5.292
10715WAT      O32546   5.664   1.765   4.252
10715WAT     H132547   5.680   1.859   4.241
10715WAT     H232548   5.737   1.722   4.208
10716WAT      O32549   0.646   1.168   4.071
10716WAT     H132550   0.566   1.181   4.121
10716WAT     H232551   0.631   1.215   3.989
10717WAT      O32552   2.902   6.742   2.657
10717WAT     H132553   2.844   6.686   2.606
10717WAT     H232554   2.985   6.742   2.610
10718WAT      O32555   3.046   0.915   2.418
10718WAT     H132556   3.006   0.874   2.341
10718WAT     H232557   3.058   1.006   2.392
10719WAT      O32558   2.410   1.216   2.789
10719WAT     H132559   2.407   1.161   2.711
10719WAT     H232560   2.331   1.192   2.838
10720WAT      O32561   1.059   4.533   5.479
10720WAT     H132562   1.095   4.531   5.391
10720WAT     H232563   1.047   4.441   5.503
10721WAT      O32564   0.753   2.764   3.752
10721WAT     H132565   0.777   2.734   3.664
10721WAT     H232566   0.830   2.812   3.783
10722WAT      O32567   2.634   0.063   0.212
10722WAT     H132568   2.644   0.087   0.120
10722WAT     H232569   2.594  -0.024   0.210
10723WAT      O32570   7.084   3.807   1.643
10723WAT     H132571   7.146   3.862   1.596
10723WAT     H232572   7.031   3.767   1.574
10724WAT      O32573   0.740   4.364   2.811
10724WAT     H132574   0.833   4.346   2.798
10724WAT     H232575   0.722   4.439   2.755
10725WAT      O32576   1.779   2.857   2.871
10725WAT     H132577   1.832   2.784   2.905
10725WAT     H232578   1.735   2.821   2.794
10726WAT      O32579   1.429   0.457   1.288
10726WAT     H132580   1.338   0.437   1.266
10726WAT     H232581   1.462   0.504   1.211
10727WAT      O32582   1.524   0.673   0.239
10727WAT     H132583   1.529   0.578   0.232
10727WAT     H232584   1.588   0.705   0.175
10728WAT      O32585   1.277   2.660   6.130
10728WAT     H132586   1.197   2.688   6.174
10728WAT     H232587   1.249   2.591   6.070
10729WAT      O32588   2.792   6.017   5.514
10729WAT     H132589   2.741   5.942   5.483
10729WAT     H232590   2.883   5.993   5.498
10730WAT      O32591   4.545   3.661   2.887
10730WAT     H132592   4.466   3.687   2.934
10730WAT     H232593   4.543   3.565   2.887
10731WAT      O32594   0.030   6.954   1.094
10731WAT     H132595  -0.018   6.872   1.084
10731WAT     H232596   0.095   6.952   1.024
10732WAT      O32597   5.347   2.654   3.403
10732WAT     H132598   5.293   2.620   3.474
10732WAT     H232599   5.353   2.581   3.341
10733WAT      O32600   1.283   4.090   1.413
10733WAT     H132601   1.214   4.037   1.373
10733WAT     H232602   1.320   4.034   1.481
10734WAT      O32603   6.227   6.364   0.699
10734WAT     H132604   6.238   6.458   0.690
10734WAT     H232605   6.132   6.351   0.697
10735WAT      O32606   4.729   5.143   4.493
10735WAT     H132607   4.720   5.104   4.579
10735WAT     H232608   4.640   5.167   4.467
10736WAT      O32609   4.489   4.666   3.669
10736WAT     H132610   4.456   4.621   3.747
10736WAT     H232611   4.562   4.611   3.639
10737WAT      O32612   3.080   1.171   0.380
10737WAT     H132613   3.143   1.230   0.338
10737WAT     H232614   3.016   1.153   0.312
10738WAT      O32615   3.953   4.871   0.913
10738WAT     H132616   3.869   4.895   0.953
10738WAT     H232617   3.988   4.954   0.879
10739WAT      O32618   4.275   5.377   6.082
10739WAT     H132619   4.304   5.336   6.163
10739WAT     H232620   4.349   5.431   6.054
10740WAT      O32621   5.124   1.145   4.635
10740WAT     H132622   5.192   1.194   4.681
10740WAT     H232623   5.045   1.199   4.645
10741WAT      O32624   0.212   0.257   0.858
10741WAT     H132625   0.294   0.297   0.888
10741WAT     H232626   0.155   0.330   0.837
10742WAT      O32627   5.353   5.796   3.768
10742WAT     H132628   5.419   5.819   3.702
10742WAT     H232629   5.308   5.878   3.785
10743WAT      O32630   5.031   5.924   5.464
10743WAT     H132631   5.053   5.832   5.449
10743WAT     H232632   5.041   5.966   5.378
10744WAT      O32633   0.364   0.423   3.278
10744WAT     H132634   0.331   0.335   3.296
10744WAT     H232635   0.402   0.416   3.190
10745WAT      O32636   3.752   0.638   2.425
10745WAT     H132637   3.807   0.621   2.349
10745WAT     H232638   3.720   0.727   2.412
10746WAT      O32639   4.487   3.105   1.262
10746WAT     H132640   4.494   3.130   1.170
10746WAT     H232641   4.396   3.077   1.273
10747WAT      O32642   1.092   0.288   5.387
10747WAT     H132643   1.022   0.338   5.428
10747WAT     H232644   1.145   0.354   5.342
10748WAT      O32645   6.602   2.018   6.099
10748WAT     H132646   6.670   2.065   6.050
10748WAT     H232647   6.635   1.928   6.106
10749WAT      O32648   3.098   7.194   1.155
10749WAT     H132649   3.101   7.255   1.080
10749WAT     H232650   3.124   7.110   1.118
10750WAT      O32651   6.687   4.483   0.706
10750WAT     H132652   6.755   4.482   0.639
10750WAT     H232653   6.609   4.513   0.660
10751WAT      O32654   0.344   7.088   3.038
10751WAT     H132655   0.431   7.101   3.077
10751WAT     H232656   0.322   7.173   2.999
10752WAT      O32657   3.265   5.843   2.237
10752WAT     H132658   3.185   5.850   2.185
10752WAT     H232659   3.301   5.757   2.214
10753WAT      O32660   6.745   2.704   2.280
10753WAT     H132661   6.755   2.716   2.186
10753WAT     H232662   6.801   2.629   2.301
10754WAT      O32663   4.927   1.171   1.800
10754WAT     H132664   4.906   1.102   1.862
10754WAT     H232665   4.919   1.252   1.850
10755WAT      O32666   5.739   3.352   1.722
10755WAT     H132667   5.817   3.329   1.672
10755WAT     H232668   5.686   3.404   1.662
10756WAT      O32669   0.852   3.143   6.079
10756WAT     H132670   0.757   3.141   6.077
10756WAT     H232671   0.879   3.119   5.990
10757WAT      O32672   4.129   7.038   3.310
10757WAT     H132673   4.155   7.130   3.322
10757WAT     H232674   4.035   7.038   3.326
10758WAT      O32675   4.305   4.866   2.887
10758WAT     H132676   4.232   4.905   2.840
10758WAT     H232677   4.287   4.772   2.884
10759WAT      O32678   6.662   5.240   4.661
10759WAT     H132679   6.662   5.304   4.591
10759WAT     H232680   6.754   5.217   4.673
10760WAT      O32681   5.751   6.352   1.726
10760WAT     H132682   5.846   6.355   1.731
10760WAT     H232683   5.726   6.437   1.687
10761WAT      O32684   2.590   0.076   0.481
10761WAT     H132685   2.614   0.093   0.390
10761WAT     H232686   2.673   0.074   0.528
10762WAT      O32687   7.070   1.992   2.863
10762WAT     H132688   7.143   2.007   2.803
10762WAT     H232689   7.013   1.931   2.816
10763WAT      O32690   6.708   2.494   4.700
10763WAT     H132691   6.785   2.543   4.728
10763WAT     H232692   6.742   2.430   4.637
10764WAT      O32693   1.688   1.399   5.668
10764WAT     H132694   1.684   1.304   5.675
10764WAT     H232695   1.701   1.416   5.574
10765WAT      O32696   4.153   0.684   2.675
10765WAT     H132697   4.062   0.702   2.653
10765WAT     H232698   4.150   0.602   2.724
10766WAT      O32699   0.783   1.288   0.680
10766WAT     H132700   0.875   1.291   0.656
10766WAT     H232701   0.755   1.380   0.681
10767WAT      O32702   1.287   5.457   0.200
10767WAT     H132703   1.342   5.379   0.207
10767WAT     H232704   1.321   5.503   0.123
10768WAT      O32705   6.874   1.667   4.062
10768WAT     H132706   6.863   1.715   3.980
10768WAT     H232707   6.786   1.639   4.086
10769WAT      O32708   6.970   1.218   4.815
10769WAT     H132709   6.894   1.227   4.758
10769WAT     H232710   7.025   1.293   4.794
10770WAT      O32711   6.599   3.240   5.621
10770WAT     H132712   6.680   3.224   5.572
10770WAT     H232713   6.622   3.219   5.712
10771WAT      O32714   5.934   0.485   1.755
10771WAT     H132715   5.902   0.414   1.699
10771WAT     H232716   5.895   0.467   1.841
10772WAT      O32717   1.439   1.810   3.039
10772WAT     H132718   1.478   1.853   2.963
10772WAT     H232719   1.359   1.770   3.006
10773WAT      O32720   0.739   6.508   0.100
10773WAT     H132721   0.719   6.435   0.159
10773WAT     H232722   0.685   6.492   0.023
10774WAT      O32723   5.133   2.893   1.336
10774WAT     H132724   5.063   2.829   1.345
10774WAT     H232725   5.176   2.871   1.253
10775WAT      O32726   6.456   4.982   2.064
10775WAT     H132727   6.455   5.027   2.149
10775WAT     H232728   6.539   5.007   2.025
10776WAT      O32729   2.797   5.158   2.681
10776WAT     H132730   2.792   5.063   2.676
10776WAT     H232731   2.743   5.181   2.757
10777WAT      O32732   1.350   4.771   3.536
10777WAT     H132733   1.347   4.771   3.440
10777WAT     H232734   1.333   4.680   3.560
10778WAT      O32735   0.552   5.032   3.193
10778WAT     H132736   0.488   5.099   3.171
10778WAT     H232737   0.633   5.061   3.150
10779WAT      O32738   4.902   0.434   5.743
10779WAT     H132739   4.984   0.477   5.767
10779WAT     H232740   4.917   0.341   5.762
10780WAT      O32741   0.837   2.129   3.179
10780WAT     H132742   0.885   2.087   3.108
10780WAT     H232743   0.820   2.218   3.148
10781WAT      O32744   1.785   6.747   2.623
10781WAT     H132745   1.691   6.737   2.608
10781WAT     H232746   1.791   6.807   2.697
10782WAT      O32747   6.878   6.397   2.976
10782WAT     H132748   6.846   6.366   2.892
10782WAT     H232749   6.807   6.452   3.010
10783WAT      O32750   3.238   4.563   4.722
10783WAT     H132751   3.320   4.609   4.700
10783WAT     H232752   3.170   4.612   4.675
10784WAT      O32753   3.510   6.060   0.517
10784WAT     H132754   3.444   6.104   0.463
10784WAT     H232755   3.585   6.050   0.459
10785WAT      O32756   0.796   0.805   5.951
10785WAT     H132757   0.837   0.872   5.896
10785WAT     H232758   0.710   0.841   5.973
10786WAT      O32759   5.097   1.793   1.597
10786WAT     H132760   5.161   1.845   1.547
10786WAT     H232761   5.066   1.728   1.535
10787WAT      O32762   2.363   2.974   0.869
10787WAT     H132763   2.309   2.899   0.894
10787WAT     H232764   2.364   2.973   0.774
10788WAT      O32765   3.897   3.807   1.061
10788WAT     H132766   3.918   3.866   0.989
10788WAT     H232767   3.816   3.763   1.034
10789WAT      O32768   2.002   6.607   2.477
10789WAT     H132769   1.993   6.596   2.382
10789WAT     H232770   1.913   6.622   2.508
10790WAT      O32771   7.327   2.952   1.181
10790WAT     H132772   7.235   2.934   1.202
10790WAT     H232773   7.325   2.993   1.095
10791WAT      O32774   5.725   3.690   2.591
10791WAT     H132775   5.647   3.637   2.610
10791WAT     H232776   5.708   3.727   2.504
10792WAT      O32777   6.421   5.887   2.084
10792WAT     H132778   6.466   5.902   2.167
10792WAT     H232779   6.361   5.814   2.103
10793WAT      O32780   0.169   4.266   2.793
10793WAT     H132781   0.198   4.269   2.702
10793WAT     H232782   0.240   4.306   2.843
10794WAT      O32783   6.565   3.019   2.115
10794WAT     H132784   6.517   2.978   2.043
10794WAT     H232785   6.623   3.082   2.073
10795WAT      O32786   5.076   1.902   3.426
10795WAT     H132787   5.156   1.878   3.378
10795WAT     H232788   5.108   1.942   3.507
10796WAT      O32789   0.559   2.772   0.478
10796WAT     H132790   0.566   2.742   0.387
10796WAT     H232791   0.523   2.696   0.525
10797WAT      O32792   4.751   6.138   6.220
10797WAT     H132793   4.756   6.139   6.125
10797WAT     H232794   4.657   6.140   6.240
10798WAT      O32795   4.972   6.327   2.850
10798WAT     H132796   4.901   6.296   2.905
10798WAT     H232797   4.949   6.297   2.762
10799WAT      O32798   2.295   6.801   2.728
10799WAT     H132799   2.295   6.797   2.632
10799WAT     H232800   2.387   6.806   2.752
10800WAT      O32801   7.239   4.599   1.554
10800WAT     H132802   7.299   4.631   1.487
10800WAT     H232803   7.168   4.663   1.555
10801WAT      O32804   6.996   5.770   1.693
10801WAT     H132805   7.033   5.713   1.761
10801WAT     H232806   6.904   5.748   1.689
10802WAT      O32807   5.143   5.992   6.192
10802WAT     H132808   5.104   6.033   6.269
10802WAT     H232809   5.229   6.034   6.184
10803WAT      O32810   6.491   1.062   3.149
10803WAT     H132811   6.471   1.155   3.136
10803WAT     H232812   6.418   1.016   3.106
10804WAT      O32813   4.506   1.488   0.603
10804WAT     H132814   4.591   1.448   0.583
10804WAT     H232815   4.498   1.559   0.540
10805WAT      O32816   0.676   4.430   1.386
10805WAT     H132817   0.715   4.392   1.465
10805WAT     H232818   0.750   4.465   1.337
10806WAT      O32819   2.696   2.292   5.183
10806WAT     H132820   2.618   2.237   5.171
10806WAT     H232821   2.661   2.381   5.188
10807WAT      O32822   2.598   3.862   1.548
10807WAT     H132823   2.584   3.956   1.538
10807WAT     H232824   2.611   3.849   1.642
10808WAT      O32825   6.011   0.958   0.747
10808WAT     H132826   6.092   0.977   0.699
10808WAT     H232827   5.964   1.042   0.748
10809WAT      O32828   3.432   6.707   3.921
10809WAT     H132829   3.492   6.717   3.848
10809WAT     H232830   3.346   6.697   3.881
10810WAT      O32831   4.096   6.439   2.150
10810WAT     H132832   4.086   6.361   2.095
10810WAT     H232833   4.184   6.431   2.186
10811WAT      O32834   4.938   2.521   2.056
10811WAT     H132835   4.972   2.500   1.969
10811WAT     H232836   4.922   2.436   2.097
10812WAT      O32837   0.442   2.777   5.942
10812WAT     H132838   0.382   2.848   5.919
10812WAT     H232839   0.523   2.797   5.894
10813WAT      O32840   7.553   0.887   2.195
10813WAT     H132841   7.542   0.889   2.290
10813WAT     H232842   7.465   0.897   2.160
10814WAT      O32843   0.573   2.450   2.339
10814WAT     H132844   0.560   2.488   2.251
10814WAT     H232845   0.628   2.515   2.384
10815WAT      O32846   1.264   3.468   1.417
10815WAT     H132847   1.217   3.387   1.397
10815WAT     H232848   1.199   3.537   1.404
10816WAT      O32849   1.722   6.939   5.892
10816WAT     H132850   1.769   7.022   5.903
10816WAT     H232851   1.772   6.877   5.945
10817WAT      O32852   4.684   0.592   1.626
10817WAT     H132853   4.615   0.610   1.690
10817WAT     H232854   4.704   0.678   1.587
10818WAT      O32855   6.685   1.161   1.274
10818WAT     H132856   6.667   1.211   1.194
10818WAT     H232857   6.779   1.140   1.268
10819WAT      O32858   2.454   0.885   2.122
10819WAT     H132859   2.364   0.903   2.146
10819WAT     H232860   2.467   0.792   2.142
10820WAT      O32861   5.893   1.794   5.883
10820WAT     H132862   5.873   1.871   5.937
10820WAT     H232863   5.874   1.822   5.794
10821WAT      O32864   6.980   1.791   3.606
10821WAT     H132865   6.999   1.698   3.617
10821WAT     H232866   7.064   1.831   3.586
10822WAT      O32867   2.731   6.718   4.684
10822WAT     H132868   2.794   6.659   4.643
10822WAT     H232869   2.737   6.799   4.633
10823WAT      O32870   5.749   1.866   2.894
10823WAT     H132871   5.810   1.816   2.839
10823WAT     H232872   5.754   1.824   2.979
10824WAT      O32873   5.716   3.472   0.673
10824WAT     H132874   5.646   3.407   0.682
10824WAT     H232875   5.752   3.458   0.586
10825WAT      O32876   5.715   1.700   3.173
10825WAT     H132877   5.675   1.614   3.155
10825WAT     H232878   5.787   1.680   3.232
10826WAT      O32879   5.690   1.564   1.952
10826WAT     H132880   5.726   1.607   1.874
10826WAT     H232881   5.596   1.574   1.944
10827WAT      O32882   6.828   1.888   4.667
10827WAT     H132883   6.778   1.834   4.728
10827WAT     H232884   6.806   1.853   4.581
10828WAT      O32885   2.924   2.048   5.280
10828WAT     H132886   2.911   2.127   5.332
10828WAT     H232887   3.018   2.047   5.262
10829WAT      O32888   3.333   1.395   1.893
10829WAT     H132889   3.390   1.335   1.845
10829WAT     H232890   3.275   1.432   1.826
10830WAT      O32891   5.819   4.964   3.207
10830WAT     H132892   5.774   4.921   3.135
10830WAT     H232893   5.751   4.976   3.274
10831WAT      O32894   6.404   1.151   1.333
10831WAT     H132895   6.368   1.066   1.310
10831WAT     H232896   6.497   1.136   1.346
10832WAT      O32897   7.302   4.435   1.810
10832WAT     H132898   7.238   4.392   1.754
10832WAT     H232899   7.259   4.441   1.895
10833WAT      O32900   4.247   5.434   1.450
10833WAT     H132901   4.334   5.406   1.423
10833WAT     H232902   4.235   5.520   1.409
10834WAT      O32903   5.836   0.752   1.992
10834WAT     H132904   5.889   0.761   2.071
10834WAT     H232905   5.834   0.658   1.975
10835WAT      O32906   7.568   5.914   5.805
10835WAT     H132907   7.636   5.908   5.872
10835WAT     H232908   7.615   5.942   5.726
10836WAT      O32909   1.541   3.222   5.813
10836WAT     H132910   1.559   3.133   5.782
10836WAT     H232911   1.540   3.275   5.733
10837WAT      O32912   6.073   6.876   3.891
10837WAT     H132913   5.977   6.869   3.888
10837WAT     H232914   6.096   6.925   3.813
10838WAT      O32915   3.162   4.999   6.193
10838WAT     H132916   3.148   5.089   6.165
10838WAT     H232917   3.096   4.949   6.146
10839WAT      O32918   4.061   0.631   3.064
10839WAT     H132919   4.128   0.579   3.109
10839WAT     H232920   4.038   0.700   3.126
10840WAT      O32921   6.766   7.148   0.671
10840WAT     H132922   6.837   7.085   0.684
10840WAT     H232923   6.687   7.102   0.701
10841WAT      O32924   4.289   6.512   2.539
10841WAT     H132925   4.194   6.505   2.544
10841WAT     H232926   4.315   6.546   2.625
10842WAT      O32927   2.461   5.479   4.099
10842WAT     H132928   2.529   5.418   4.070
10842WAT     H232929   2.379   5.439   4.070
10843WAT      O32930   3.824   5.265   4.978
10843WAT     H132931   3.784   5.215   4.906
10843WAT     H232932   3.780   5.350   4.975
10844WAT      O32933   7.327   6.782   6.039
10844WAT     H132934   7.292   6.693   6.033
10844WAT     H232935   7.390   6.788   5.968
10845WAT      O32936   1.668   2.090   2.055
10845WAT     H132937   1.574   2.072   2.064
10845WAT     H232938   1.674   2.147   1.978
10846WAT      O32939   5.763   3.924   2.761
10846WAT     H132940   5.733   3.848   2.712
10846WAT     H232941   5.784   3.989   2.693
10847WAT      O32942   3.457   5.105   4.174
10847WAT     H132943   3.453   5.059   4.257
10847WAT     H232944   3.369   5.099   4.138
10848WAT      O32945   5.621   2.279   2.049
10848WAT     H132946   5.560   2.312   1.984
10848WAT     H232947   5.707   2.309   2.018
10849WAT      O32948   0.640   4.352   2.431
10849WAT     H132949   0.648   4.431   2.379
10849WAT     H232950   0.548   4.325   2.421
10850WAT      O32951   1.103   3.513   0.068
10850WAT     H132952   1.042   3.484  -0.001
10850WAT     H232953   1.056   3.585   0.111
10851WAT      O32954   1.658   4.953   5.957
10851WAT     H132955   1.596   4.942   5.886
10851WAT     H232956   1.650   4.873   6.008
10852WAT      O32957   2.087   6.157   3.451
10852WAT     H132958   1.991   6.157   3.445
10852WAT     H232959   2.115   6.086   3.392
10853WAT      O32960   3.068   6.785   1.906
10853WAT     H132961   3.162   6.788   1.927
10853WAT     H232962   3.064   6.786   1.811
10854WAT      O32963   3.664   1.268   5.004
10854WAT     H132964   3.582   1.221   4.988
10854WAT     H232965   3.692   1.299   4.918
10855WAT      O32966   0.073   6.597   0.170
10855WAT     H132967   0.081   6.682   0.128
10855WAT     H232968   0.011   6.548   0.115
10856WAT      O32969   0.604   5.638   5.266
10856WAT     H132970   0.582   5.639   5.360
10856WAT     H232971   0.696   5.664   5.262
10857WAT      O32972   3.462   1.404   3.180
10857WAT     H132973   3.378   1.442   3.206
10857WAT     H232974   3.453   1.387   3.086
10858WAT      O32975   0.176   4.751   5.535
10858WAT     H132976   0.144   4.716   5.618
10858WAT     H232977   0.206   4.674   5.486
10859WAT      O32978   7.063   2.135   1.030
10859WAT     H132979   6.976   2.148   0.992
10859WAT     H232980   7.048   2.073   1.102
10860WAT      O32981   7.528   0.355   0.309
10860WAT     H132982   7.448   0.322   0.349
10860WAT     H232983   7.512   0.351   0.215
10861WAT      O32984   2.546   0.510   6.133
10861WAT     H132985   2.583   0.478   6.051
10861WAT     H232986   2.489   0.440   6.163
10862WAT      O32987   4.118   2.152   0.069
10862WAT     H132988   4.160   2.097   0.002
10862WAT     H232989   4.133   2.241   0.039
10863WAT      O32990   0.438   6.120   5.983
10863WAT     H132991   0.377   6.150   5.915
10863WAT     H232992   0.482   6.045   5.944
10864WAT      O32993   7.133   5.093   2.462
10864WAT     H132994   7.212   5.068   2.511
10864WAT     H232995   7.063   5.042   2.503
10865WAT      O32996   1.526   6.762   4.630
10865WAT     H132997   1.613   6.793   4.658
10865WAT     H232998   1.488   6.836   4.583
10866WAT      O32999   3.109   5.270   2.649
10866WAT     H133000   3.150   5.284   2.563
10866WAT     H233001   3.015   5.270   2.630
10867WAT      O33002   7.281   3.345   5.939
10867WAT     H133003   7.353   3.390   5.896
10867WAT     H233004   7.206   3.357   5.881
10868WAT      O33005   2.458   2.778   4.844
10868WAT     H133006   2.472   2.717   4.772
10868WAT     H233007   2.423   2.857   4.802
10869WAT      O33008   5.846   2.760   4.250
10869WAT     H133009   5.799   2.842   4.269
10869WAT     H233010   5.909   2.783   4.182
10870WAT      O33011   1.716   4.799   5.434
10870WAT     H133012   1.808   4.775   5.444
10870WAT     H233013   1.667   4.726   5.471
10871WAT      O33014   5.472   1.646   4.680
10871WAT     H133015   5.384   1.655   4.643
10871WAT     H233016   5.523   1.604   4.610
10872WAT      O33017   4.287   5.611   2.405
10872WAT     H133018   4.251   5.583   2.321
10872WAT     H233019   4.265   5.540   2.465
10873WAT      O33020   3.070   1.668   4.126
10873WAT     H133021   3.014   1.719   4.068
10873WAT     H233022   3.142   1.639   4.071
10874WAT      O33023   6.860   2.653   3.642
10874WAT     H133024   6.928   2.629   3.579
10874WAT     H233025   6.808   2.719   3.597
10875WAT      O33026   2.221   0.986   5.952
10875WAT     H133027   2.208   1.056   5.888
10875WAT     H233028   2.132   0.964   5.982
10876WAT      O33029   3.891   7.046   3.010
10876WAT     H133030   3.911   6.959   3.046
10876WAT     H233031   3.947   7.052   2.932
10877WAT      O33032   0.984   0.330   1.054
10877WAT     H133033   1.017   0.419   1.040
10877WAT     H233034   1.010   0.282   0.975
10878WAT      O33035   1.854   0.523   4.140
10878WAT     H133036   1.782   0.557   4.088
10878WAT     H233037   1.880   0.442   4.096
10879WAT      O33038   3.653   0.880   2.397
10879WAT     H133039   3.565   0.908   2.422
10879WAT     H233040   3.669   0.925   2.314
10880WAT      O33041   1.132   7.188   1.491
10880WAT     H133042   1.065   7.132   1.450
10880WAT     H233043   1.149   7.257   1.426
10881WAT      O33044   7.370   0.212   4.696
10881WAT     H133045   7.334   0.176   4.615
10881WAT     H233046   7.447   0.262   4.668
10882WAT      O33047   0.955   4.027   3.032
10882WAT     H133048   0.884   3.963   3.039
10882WAT     H233049   1.034   3.975   3.022
10883WAT      O33050   5.643   0.832   0.212
10883WAT     H133051   5.675   0.921   0.205
10883WAT     H233052   5.656   0.795   0.125
10884WAT      O33053   3.969   5.597   1.450
10884WAT     H133054   4.045   5.568   1.500
10884WAT     H233055   3.944   5.680   1.490
10885WAT      O33056   3.595   2.740   1.988
10885WAT     H133057   3.664   2.683   1.956
10885WAT     H233058   3.521   2.682   2.005
10886WAT      O33059   0.629   4.357   0.988
10886WAT     H133060   0.668   4.375   0.902
10886WAT     H233061   0.673   4.278   1.018
10887WAT      O33062   1.264   3.839   5.300
10887WAT     H133063   1.228   3.822   5.213
10887WAT     H233064   1.346   3.885   5.283
10888WAT      O33065   5.731   0.139   2.192
10888WAT     H133066   5.676   0.133   2.114
10888WAT     H233067   5.804   0.080   2.174
10889WAT      O33068   7.447   3.441   6.164
10889WAT     H133069   7.378   3.503   6.187
10889WAT     H233070   7.414   3.395   6.088
10890WAT      O33071   5.686   3.866   5.417
10890WAT     H133072   5.697   3.778   5.380
10890WAT     H233073   5.591   3.880   5.417
10891WAT      O33074   2.262   2.649   2.313
10891WAT     H133075   2.259   2.597   2.233
10891WAT     H233076   2.171   2.673   2.329
10892WAT      O33077   6.791   1.852   2.296
10892WAT     H133078   6.773   1.825   2.386
10892WAT     H233079   6.705   1.861   2.256
10893WAT      O33080   2.568   5.748   3.622
10893WAT     H133081   2.640   5.811   3.634
10893WAT     H233082   2.579   5.717   3.532
10894WAT      O33083   5.107   7.084   2.232
10894WAT     H133084   5.043   7.026   2.191
10894WAT     H233085   5.069   7.171   2.222
10895WAT      O33086   2.560   3.006   0.378
10895WAT     H133087   2.570   3.097   0.407
10895WAT     H233088   2.492   3.009   0.311
10896WAT      O33089   4.760   3.049   0.238
10896WAT     H133090   4.755   3.013   0.326
10896WAT     H233091   4.817   2.989   0.191
10897WAT      O33092   5.919   3.182   5.936
10897WAT     H133093   5.986   3.168   5.870
10897WAT     H233094   5.872   3.260   5.907
10898WAT      O33095   0.936   3.328   0.310
10898WAT     H133096   0.860   3.310   0.255
10898WAT     H233097   1.006   3.349   0.249
10899WAT      O33098   0.010   7.047   4.109
10899WAT     H133099   0.084   7.105   4.093
10899WAT     H233100  -0.065   7.105   4.120
10900WAT      O33101   2.071   1.577   0.577
10900WAT     H133102   2.024   1.569   0.494
10900WAT     H233103   2.120   1.659   0.569
10901WAT      O33104   2.628   6.999   1.428
10901WAT     H133105   2.592   6.913   1.408
10901WAT     H233106   2.698   6.982   1.491
10902WAT      O33107   0.124   6.146   1.532
10902WAT     H133108   0.125   6.190   1.617
10902WAT     H233109   0.031   6.135   1.512
10903WAT      O33110   6.451   0.580   0.016
10903WAT     H133111   6.392   0.587   0.091
10903WAT     H233112   6.471   0.486   0.010
10904WAT      O33113   3.937   4.648   4.576
10904WAT     H133114   4.017   4.678   4.618
10904WAT     H233115   3.880   4.725   4.576
10905WAT      O33116   0.342   4.368   2.973
10905WAT     H133117   0.414   4.431   2.964
10905WAT     H233118   0.382   4.291   3.014
10906WAT      O33119   0.645   3.154   4.146
10906WAT     H133120   0.647   3.135   4.052
10906WAT     H233121   0.610   3.243   4.151
10907WAT      O33122   0.723   7.154   0.338
10907WAT     H133123   0.693   7.073   0.297
10907WAT     H233124   0.773   7.199   0.269
10908WAT      O33125   3.716   3.076   6.203
10908WAT     H133126   3.708   3.166   6.235
10908WAT     H233127   3.694   3.081   6.110
10909WAT      O33128   7.365   2.209   4.225
10909WAT     H133129   7.338   2.119   4.207
10909WAT     H233130   7.392   2.244   4.141
10910WAT      O33131   1.117   5.350   3.226
10910WAT     H133132   1.025   5.336   3.201
10910WAT     H233133   1.126   5.305   3.309
10911WAT      O33134   4.786   3.676   1.619
10911WAT     H133135   4.721   3.613   1.588
10911WAT     H233136   4.870   3.638   1.593
10912WAT      O33137   4.151   1.464   5.941
10912WAT     H133138   4.106   1.461   5.857
10912WAT     H233139   4.229   1.517   5.924
10913WAT      O33140   1.450   6.948   0.143
10913WAT     H133141   1.442   6.864   0.188
10913WAT     H233142   1.376   6.949   0.081
10914WAT      O33143   0.707   6.226   4.039
10914WAT     H133144   0.775   6.266   4.094
10914WAT     H233145   0.726   6.257   3.950
10915WAT      O33146   0.985   5.007   3.229
10915WAT     H133147   1.071   4.981   3.262
10915WAT     H233148   0.995   5.004   3.133
10916WAT      O33149   5.082   6.338   1.091
10916WAT     H133150   4.993   6.372   1.080
10916WAT     H233151   5.087   6.263   1.031
10917WAT      O33152   1.696   1.015   4.452
10917WAT     H133153   1.735   0.957   4.517
10917WAT     H233154   1.756   1.013   4.378
10918WAT      O33155   7.420   3.714   5.532
10918WAT     H133156   7.414   3.619   5.525
10918WAT     H233157   7.332   3.742   5.556
10919WAT      O33158   0.566   7.100   3.703
10919WAT     H133159   0.556   7.009   3.732
10919WAT     H233160   0.494   7.115   3.642
10920WAT      O33161   2.714   2.607   2.413
10920WAT     H133162   2.644   2.606   2.478
10920WAT     H233163   2.742   2.699   2.409
10921WAT      O33164   5.980   5.427   2.027
10921WAT     H133165   5.962   5.394   1.939
10921WAT     H233166   6.075   5.428   2.033
10922WAT      O33167   3.419   7.186   0.675
10922WAT     H133168   3.325   7.180   0.690
10922WAT     H233169   3.447   7.095   0.666
10923WAT      O33170   6.928   1.846   3.857
10923WAT     H133171   6.872   1.924   3.854
10923WAT     H233172   6.953   1.830   3.766
10924WAT      O33173   4.021   4.912   5.558
10924WAT     H133174   3.953   4.876   5.500
10924WAT     H233175   3.973   4.965   5.621
10925WAT      O33176   1.065   5.005   2.931
10925WAT     H133177   1.145   5.041   2.891
10925WAT     H233178   1.084   4.912   2.942
10926WAT      O33179   3.948   1.837   0.731
10926WAT     H133180   4.000   1.761   0.757
10926WAT     H233181   3.999   1.877   0.660
10927WAT      O33182   4.857   0.757   2.221
10927WAT     H133183   4.918   0.702   2.172
10927WAT     H233184   4.772   0.739   2.181
10928WAT      O33185   2.690   1.738   3.672
10928WAT     H133186   2.648   1.727   3.586
10928WAT     H233187   2.762   1.799   3.656
10929WAT      O33188   5.095   1.274   2.349
10929WAT     H133189   5.109   1.194   2.298
10929WAT     H233190   5.164   1.333   2.320
10930WAT      O33191   4.457   0.961   2.070
10930WAT     H133192   4.418   1.021   2.134
10930WAT     H233193   4.447   1.006   1.986
10931WAT      O33194   1.390   0.606   5.894
10931WAT     H133195   1.358   0.565   5.814
10931WAT     H233196   1.457   0.667   5.864
10932WAT      O33197   0.591   0.246   3.397
10932WAT     H133198   0.635   0.268   3.314
10932WAT     H233199   0.624   0.312   3.459
10933WAT      O33200   0.418   6.168   1.454
10933WAT     H133201   0.469   6.245   1.476
10933WAT     H233202   0.328   6.192   1.473
10934WAT      O33203   2.866   2.718   5.333
10934WAT     H133204   2.825   2.803   5.318
10934WAT     H233205   2.946   2.721   5.281
10935WAT      O33206   0.463   0.555   1.485
10935WAT     H133207   0.467   0.478   1.542
10935WAT     H233208   0.378   0.547   1.441
10936WAT      O33209   2.568   0.639   5.523
10936WAT     H133210   2.491   0.603   5.478
10936WAT     H233211   2.538   0.722   5.560
10937WAT      O33212   2.572   2.169   5.846
10937WAT     H133213   2.572   2.159   5.751
10937WAT     H233214   2.617   2.252   5.862
10938WAT      O33215   0.236   1.143   4.729
10938WAT     H133216   0.147   1.107   4.722
10938WAT     H233217   0.258   1.170   4.640
10939WAT      O33218   5.741   6.301   2.674
10939WAT     H133219   5.782   6.322   2.591
10939WAT     H233220   5.730   6.385   2.718
10940WAT      O33221   6.317   2.294   3.876
10940WAT     H133222   6.342   2.375   3.832
10940WAT     H233223   6.386   2.231   3.853
10941WAT      O33224   0.332   1.626   4.097
10941WAT     H133225   0.323   1.559   4.165
10941WAT     H233226   0.290   1.703   4.134
10942WAT      O33227   3.149   4.990   5.333
10942WAT     H133228   3.145   4.948   5.247
10942WAT     H233229   3.231   4.957   5.371
10943WAT      O33230   4.523   3.880   2.101
10943WAT     H133231   4.584   3.806   2.109
10943WAT     H233232   4.465   3.855   2.029
10944WAT      O33233   4.627   4.115   4.080
10944WAT     H133234   4.540   4.098   4.043
10944WAT     H233235   4.662   4.187   4.027
10945WAT      O33236   6.734   3.204   2.948
10945WAT     H133237   6.764   3.231   2.862
10945WAT     H233238   6.648   3.165   2.933
10946WAT      O33239   3.411   0.743   2.097
10946WAT     H133240   3.492   0.770   2.053
10946WAT     H233241   3.359   0.822   2.102
10947WAT      O33242   4.024   2.026   3.978
10947WAT     H133243   3.950   2.072   3.937
10947WAT     H233244   4.068   2.093   4.030
10948WAT      O33245   4.012   5.697   4.185
10948WAT     H133246   4.091   5.745   4.210
10948WAT     H233247   3.975   5.747   4.112
10949WAT      O33248   1.819   3.817   0.488
10949WAT     H133249   1.751   3.813   0.555
10949WAT     H233250   1.901   3.817   0.538
10950WAT      O33251   6.723   0.422   3.565
10950WAT     H133252   6.770   0.480   3.626
10950WAT     H233253   6.772   0.340   3.568
10951WAT      O33254   5.919   3.194   1.013
10951WAT     H133255   5.923   3.201   0.918
10951WAT     H233256   5.966   3.112   1.033
10952WAT      O33257   3.330   4.973   3.759
10952WAT     H133258   3.376   4.922   3.692
10952WAT     H233259   3.270   5.029   3.710
10953WAT      O33260   3.364   3.398   1.671
10953WAT     H133261   3.281   3.388   1.626
10953WAT     H233262   3.342   3.444   1.752
10954WAT      O33263   4.338   1.221   0.371
10954WAT     H133264   4.302   1.303   0.337
10954WAT     H233265   4.276   1.154   0.341
10955WAT      O33266   1.316   4.804   2.695
10955WAT     H133267   1.363   4.733   2.740
10955WAT     H233268   1.310   4.774   2.604
10956WAT      O33269   5.664   6.730   3.054
10956WAT     H133270   5.730   6.719   3.122
10956WAT     H233271   5.604   6.657   3.067
10957WAT      O33272   3.558   3.720   5.428
10957WAT     H133273   3.488   3.673   5.474
10957WAT     H233274   3.534   3.813   5.436
10958WAT      O33275   3.796   0.122   6.141
10958WAT     H133276   3.773   0.119   6.048
10958WAT     H233277   3.736   0.060   6.182
10959WAT      O33278   0.921   6.665   4.334
10959WAT     H133279   0.971   6.622   4.265
10959WAT     H233280   0.837   6.618   4.336
10960WAT      O33281   1.495   0.805   5.714
10960WAT     H133282   1.447   0.859   5.650
10960WAT     H233283   1.574   0.856   5.733
10961WAT      O33284   5.622   5.372   2.459
10961WAT     H133285   5.665   5.429   2.395
10961WAT     H233286   5.594   5.296   2.408
10962WAT      O33287   4.413   2.922   2.147
10962WAT     H133288   4.458   2.999   2.111
10962WAT     H233289   4.323   2.931   2.117
10963WAT      O33290   7.101   2.520   5.745
10963WAT     H133291   7.023   2.468   5.763
10963WAT     H233292   7.108   2.521   5.649
10964WAT      O33293   2.137   6.277   5.505
10964WAT     H133294   2.229   6.277   5.479
10964WAT     H233295   2.105   6.363   5.479
10965WAT      O33296   1.046   4.925   4.180
10965WAT     H133297   1.018   4.890   4.096
10965WAT     H233298   1.048   4.849   4.239
10966WAT      O33299   1.458   2.700   0.508
10966WAT     H133300   1.492   2.726   0.423
10966WAT     H233301   1.441   2.606   0.499
10967WAT      O33302   4.001   2.296   2.804
10967WAT     H133303   4.061   2.367   2.782
10967WAT     H233304   3.980   2.256   2.720
10968WAT      O33305   5.428   5.168   5.342
10968WAT     H133306   5.474   5.112   5.405
10968WAT     H233307   5.476   5.156   5.260
10969WAT      O33308   1.363   4.748   5.985
10969WAT     H133309   1.300   4.685   6.022
10969WAT     H233310   1.396   4.706   5.906
10970WAT      O33311   5.444   3.764   5.238
10970WAT     H133312   5.432   3.779   5.332
10970WAT     H233313   5.430   3.670   5.228
10971WAT      O33314   7.501   4.620   1.177
10971WAT     H133315   7.583   4.644   1.133
10971WAT     H233316   7.515   4.644   1.269
10972WAT      O33317   0.843   2.906   1.524
10972WAT     H133318   0.918   2.919   1.465
10972WAT     H233319   0.768   2.896   1.465
10973WAT      O33320   0.941   4.875   6.093
10973WAT     H133321   0.907   4.830   6.170
10973WAT     H233322   0.995   4.809   6.049
10974WAT      O33323   6.098   5.807   0.153
10974WAT     H133324   6.185   5.838   0.174
10974WAT     H233325   6.086   5.830   0.061
10975WAT      O33326   7.363   7.189   3.159
10975WAT     H133327   7.406   7.260   3.111
10975WAT     H233328   7.358   7.117   3.096
10976WAT      O33329   5.737   0.279   3.256
10976WAT     H133330   5.814   0.334   3.267
10976WAT     H233331   5.690   0.317   3.182
10977WAT      O33332   3.707   0.615   2.814
10977WAT     H133333   3.630   0.662   2.781
10977WAT     H233334   3.678   0.579   2.899
10978WAT      O33335   2.315   6.571   5.046
10978WAT     H133336   2.329   6.573   4.952
10978WAT     H233337   2.392   6.526   5.081
10979WAT      O33338   0.342   0.467   2.331
10979WAT     H133339   0.253   0.435   2.315
10979WAT     H233340   0.332   0.533   2.400
10980WAT      O33341   7.311   2.075   4.534
10980WAT     H133342   7.252   2.040   4.468
10980WAT     H233343   7.308   2.170   4.520
10981WAT      O33344   7.026   3.644   4.961
10981WAT     H133345   7.034   3.739   4.971
10981WAT     H233346   6.954   3.632   4.900
10982WAT      O33347   1.743   0.668   4.965
10982WAT     H133348   1.749   0.658   4.870
10982WAT     H233349   1.650   0.659   4.984
10983WAT      O33350   0.363   6.129   1.843
10983WAT     H133351   0.427   6.109   1.911
10983WAT     H233352   0.391   6.214   1.808
10984WAT      O33353   2.792   2.829   1.946
10984WAT     H133354   2.856   2.782   2.000
10984WAT     H233355   2.823   2.818   1.857
10985WAT      O33356   7.363   5.227   6.222
10985WAT     H133357   7.370   5.132   6.232
10985WAT     H233358   7.330   5.257   6.307
10986WAT      O33359   7.575   7.142   6.044
10986WAT     H133360   7.550   7.091   6.121
10986WAT     H233361   7.492   7.171   6.007
10987WAT      O33362   0.554   5.475   2.593
10987WAT     H133363   0.630   5.530   2.573
10987WAT     H233364   0.494   5.491   2.520
10988WAT      O33365   5.008   4.308   2.876
10988WAT     H133366   4.920   4.340   2.856
10988WAT     H233367   5.009   4.218   2.842
10989WAT      O33368   4.086   2.620   2.025
10989WAT     H133369   4.105   2.707   2.061
10989WAT     H233370   4.130   2.619   1.940
10990WAT      O33371   5.774   0.297   3.695
10990WAT     H133372   5.758   0.292   3.601
10990WAT     H233373   5.846   0.359   3.705
10991WAT      O33374   5.880   5.758   1.311
10991WAT     H133375   5.904   5.776   1.220
10991WAT     H233376   5.928   5.823   1.362
10992WAT      O33377   3.240   1.788   5.290
10992WAT     H133378   3.323   1.835   5.298
10992WAT     H233379   3.250   1.735   5.212
10993WAT      O33380   0.126   2.051   1.046
10993WAT     H133381   0.085   2.027   0.963
10993WAT     H233382   0.213   2.009   1.043
10994WAT      O33383   6.720   2.514   5.327
10994WAT     H133384   6.646   2.470   5.285
10994WAT     H233385   6.738   2.589   5.270
10995WAT      O33386   3.890   0.054   4.426
10995WAT     H133387   3.845   0.064   4.510
10995WAT     H233388   3.826   0.011   4.369
10996WAT      O33389   7.246   3.234   3.214
10996WAT     H133390   7.168   3.242   3.159
10996WAT     H233391   7.285   3.151   3.189
10997WAT      O33392   0.665   0.191   2.345
10997WAT     H133393   0.616   0.236   2.276
10997WAT     H233394   0.757   0.207   2.324
10998WAT      O33395   2.141   1.107   1.341
10998WAT     H133396   2.075   1.063   1.288
10998WAT     H233397   2.221   1.102   1.290
10999WAT      O33398   3.289   5.434   3.140
10999WAT     H133399   3.340   5.414   3.062
10999WAT     H233400   3.202   5.397   3.123
11000WAT      O33401   3.854   3.745   0.595
11000WAT     H133402   3.862   3.657   0.633
11000WAT     H233403   3.891   3.736   0.507
11001WAT      O33404   6.441   5.306   5.169
11001WAT     H133405   6.400   5.224   5.142
11001WAT     H233406   6.368   5.359   5.201
11002WAT      O33407   3.958   0.751   1.326
11002WAT     H133408   3.890   0.812   1.296
11002WAT     H233409   4.037   0.779   1.280
11003WAT      O33410   3.062   6.402   2.421
11003WAT     H133411   3.142   6.452   2.405
11003WAT     H233412   3.010   6.414   2.341
11004WAT      O33413   7.402   1.020   1.856
11004WAT     H133414   7.395   1.030   1.950
11004WAT     H233415   7.481   1.068   1.832
11005WAT      O33416   7.203   4.338   0.914
11005WAT     H133417   7.235   4.406   0.973
11005WAT     H233418   7.265   4.340   0.840
11006WAT      O33419   0.548   7.175   5.019
11006WAT     H133420   0.610   7.177   4.946
11006WAT     H233421   0.513   7.086   5.018
11007WAT      O33422   1.336   0.352   0.909
11007WAT     H133423   1.423   0.342   0.869
11007WAT     H233424   1.287   0.276   0.878
11008WAT      O33425   1.822   3.933   5.315
11008WAT     H133426   1.845   3.860   5.258
11008WAT     H233427   1.842   4.011   5.263
11009WAT      O33428   4.010   1.995   3.453
11009WAT     H133429   3.939   2.057   3.437
11009WAT     H233430   3.985   1.916   3.404
11010WAT      O33431   1.768   3.327   5.410
11010WAT     H133432   1.711   3.315   5.335
11010WAT     H233433   1.758   3.247   5.462
11011WAT      O33434   6.516   0.498   4.197
11011WAT     H133435   6.471   0.419   4.228
11011WAT     H233436   6.470   0.522   4.117
11012WAT      O33437   1.887   6.224   4.260
11012WAT     H133438   1.965   6.278   4.252
11012WAT     H233439   1.849   6.224   4.172
11013WAT      O33440   3.621   4.833   2.546
11013WAT     H133441   3.582   4.766   2.603
11013WAT     H233442   3.696   4.790   2.506
11014WAT      O33443   2.803   0.439   1.417
11014WAT     H133444   2.712   0.446   1.388
11014WAT     H233445   2.841   0.525   1.399
11015WAT      O33446   4.122   3.538   4.532
11015WAT     H133447   4.170   3.545   4.449
11015WAT     H233448   4.033   3.564   4.510
11016WAT      O33449   4.307   0.906   0.575
11016WAT     H133450   4.307   0.900   0.480
11016WAT     H233451   4.220   0.873   0.601
11017WAT      O33452   5.476   6.326   0.579
11017WAT     H133453   5.462   6.334   0.485
11017WAT     H233454   5.515   6.409   0.605
11018WAT      O33455   2.667   6.922   4.496
11018WAT     H133456   2.708   6.944   4.412
11018WAT     H233457   2.578   6.957   4.489
11019WAT      O33458   5.094   5.846   0.206
11019WAT     H133459   5.155   5.780   0.240
11019WAT     H233460   5.148   5.924   0.193
11020WAT      O33461   6.352   3.913   4.419
11020WAT     H133462   6.409   3.896   4.493
11020WAT     H233463   6.406   3.895   4.342
11021WAT      O33464   3.810   3.512   1.873
11021WAT     H133465   3.795   3.547   1.961
11021WAT     H233466   3.846   3.425   1.888
11022WAT      O33467   7.032   3.299   2.537
11022WAT     H133468   6.993   3.382   2.566
11022WAT     H233469   7.037   3.307   2.441
11023WAT      O33470   5.626   5.653   4.458
11023WAT     H133471   5.714   5.620   4.478
11023WAT     H233472   5.608   5.623   4.369
11024WAT      O33473   5.012   5.918   4.250
11024WAT     H133474   4.932   5.906   4.302
11024WAT     H233475   4.982   5.910   4.159
11025WAT      O33476   7.603   5.421   1.445
11025WAT     H133477   7.590   5.473   1.366
11025WAT     H233478   7.693   5.388   1.437
11026WAT      O33479   0.295   3.178   4.127
11026WAT     H133480   0.313   3.118   4.055
11026WAT     H233481   0.312   3.127   4.206
11027WAT      O33482   2.120   1.883   2.990
11027WAT     H133483   2.072   1.962   2.965
11027WAT     H233484   2.158   1.851   2.908
11028WAT      O33485   0.842   6.760   2.986
11028WAT     H133486   0.847   6.709   2.905
11028WAT     H233487   0.920   6.735   3.035
11029WAT      O33488   0.580   6.669   5.183
11029WAT     H133489   0.553   6.758   5.159
11029WAT     H233490   0.526   6.612   5.127
11030WAT      O33491   1.256   2.822   5.767
11030WAT     H133492   1.259   2.917   5.779
11030WAT     H233493   1.317   2.806   5.695
11031WAT      O33494   7.272   6.912   4.107
11031WAT     H133495   7.243   6.824   4.082
11031WAT     H233496   7.249   6.967   4.032
11032WAT      O33497   3.969   4.872   5.130
11032WAT     H133498   4.042   4.851   5.073
11032WAT     H233499   3.893   4.878   5.072
11033WAT      O33500   6.185   1.193   4.196
11033WAT     H133501   6.176   1.246   4.117
11033WAT     H233502   6.204   1.105   4.164
11034WAT      O33503   6.538   1.746   0.429
11034WAT     H133504   6.550   1.771   0.521
11034WAT     H233505   6.447   1.718   0.423
11035WAT      O33506   6.106   2.679   5.027
11035WAT     H133507   6.084   2.755   4.972
11035WAT     H233508   6.131   2.611   4.965
11036WAT      O33509   0.915   1.504   0.208
11036WAT     H133510   0.957   1.463   0.283
11036WAT     H233511   0.973   1.485   0.134
11037WAT      O33512   7.307   3.355   2.561
11037WAT     H133513   7.214   3.337   2.545
11037WAT     H233514   7.352   3.274   2.537
11038WAT      O33515   3.377   2.329   5.017
11038WAT     H133516   3.430   2.256   5.049
11038WAT     H233517   3.337   2.296   4.937
11039WAT      O33518   3.678   2.466   5.152
11039WAT     H133519   3.650   2.459   5.061
11039WAT     H233520   3.756   2.411   5.158
11040WAT      O33521   0.477   4.839   1.598
11040WAT     H133522   0.470   4.761   1.543
11040WAT     H233523   0.555   4.823   1.652
11041WAT      O33524   7.130   4.714   4.561
11041WAT     H133525   7.085   4.635   4.589
11041WAT     H233526   7.062   4.767   4.520
11042WAT      O33527   3.913   4.337   5.483
11042WAT     H133528   3.932   4.277   5.556
11042WAT     H233529   3.864   4.285   5.421
11043WAT      O33530   5.690   3.362   3.500
11043WAT     H133531   5.743   3.422   3.553
11043WAT     H233532   5.653   3.418   3.432
11044WAT      O33533   5.677   5.177   0.787
11044WAT     H133534   5.650   5.198   0.698
11044WAT     H233535   5.736   5.102   0.777
11045WAT      O33536   0.016   5.485   0.015
11045WAT     H133537  -0.072   5.521   0.006
11045WAT     H233538   0.060   5.510  -0.066
11046WAT      O33539   0.780   6.125   0.586
11046WAT     H133540   0.846   6.128   0.516
11046WAT     H233541   0.754   6.033   0.590
11047WAT      O33542   3.425   6.354   2.183
11047WAT     H133543   3.409   6.260   2.178
11047WAT     H233544   3.454   6.378   2.095
11048WAT      O33545   3.502   5.539   6.033
11048WAT     H133546   3.437   5.469   6.024
11048WAT     H233547   3.472   5.591   6.107
11049WAT      O33548   6.995   1.590   1.640
11049WAT     H133549   6.995   1.673   1.593
11049WAT     H233550   6.953   1.528   1.580
11050WAT      O33551   4.362   0.225   2.203
11050WAT     H133552   4.323   0.258   2.122
11050WAT     H233553   4.427   0.161   2.175
11051WAT      O33554   1.723   1.898   3.546
11051WAT     H133555   1.627   1.899   3.542
11051WAT     H233556   1.749   1.834   3.480
11052WAT      O33557   7.586   1.217   1.981
11052WAT     H133558   7.620   1.196   2.068
11052WAT     H233559   7.535   1.297   1.994
11053WAT      O33560   4.702   6.009   3.393
11053WAT     H133561   4.780   6.024   3.339
11053WAT     H233562   4.631   5.999   3.330
11054WAT      O33563   0.129   0.030   3.501
11054WAT     H133564   0.117  -0.042   3.439
11054WAT     H233565   0.216   0.065   3.483
11055WAT      O33566   0.185   6.260   0.193
11055WAT     H133567   0.144   6.246   0.108
11055WAT     H233568   0.150   6.344   0.223
11056WAT      O33569   6.481   6.159   2.815
11056WAT     H133570   6.409   6.140   2.756
11056WAT     H233571   6.557   6.116   2.775
11057WAT      O33572   1.645   1.160   3.455
11057WAT     H133573   1.600   1.241   3.433
11057WAT     H233574   1.690   1.135   3.374
11058WAT      O33575   5.174   5.172   4.445
11058WAT     H133576   5.177   5.146   4.353
11058WAT     H233577   5.152   5.265   4.444
11059WAT      O33578   7.163   6.297   1.739
11059WAT     H133579   7.113   6.265   1.664
11059WAT     H233580   7.174   6.220   1.795
11060WAT      O33581   3.415   3.464   1.166
11060WAT     H133582   3.427   3.433   1.256
11060WAT     H233583   3.342   3.413   1.132
11061WAT      O33584   1.141   1.735   4.772
11061WAT     H133585   1.233   1.752   4.751
11061WAT     H233586   1.095   1.811   4.737
11062WAT      O33587   5.988   6.645   4.288
11062WAT     H133588   6.054   6.594   4.240
11062WAT     H233589   6.016   6.640   4.380
11063WAT      O33590   1.449   2.215   3.622
11063WAT     H133591   1.414   2.298   3.657
11063WAT     H233592   1.541   2.215   3.648
11064WAT      O33593   5.205   2.887   2.800
11064WAT     H133594   5.255   2.845   2.730
11064WAT     H233595   5.268   2.903   2.870
11065WAT      O33596   6.559   3.532   5.636
11065WAT     H133597   6.568   3.444   5.598
11065WAT     H233598   6.530   3.516   5.726
11066WAT      O33599   6.908   5.331   0.844
11066WAT     H133600   6.995   5.303   0.819
11066WAT     H233601   6.851   5.257   0.824
11067WAT      O33602   1.825   3.220   0.503
11067WAT     H133603   1.900   3.273   0.528
11067WAT     H233604   1.807   3.246   0.412
11068WAT      O33605   6.847   4.722   3.006
11068WAT     H133606   6.782   4.651   3.010
11068WAT     H233607   6.806   4.789   2.951
11069WAT      O33608   5.226   1.275   5.039
11069WAT     H133609   5.260   1.362   5.017
11069WAT     H233610   5.303   1.219   5.044
11070WAT      O33611   2.527   1.739   3.472
11070WAT     H133612   2.555   1.799   3.402
11070WAT     H233613   2.442   1.707   3.441
11071WAT      O33614   4.754   0.850   5.076
11071WAT     H133615   4.727   0.758   5.075
11071WAT     H233616   4.848   0.848   5.059
11072WAT      O33617   3.660   4.741   5.754
11072WAT     H133618   3.684   4.783   5.671
11072WAT     H233619   3.722   4.668   5.762
11073WAT      O33620   1.166   3.551   0.754
11073WAT     H133621   1.163   3.503   0.671
11073WAT     H233622   1.198   3.638   0.730
11074WAT      O33623   7.505   1.274   3.064
11074WAT     H133624   7.410   1.279   3.063
11074WAT     H233625   7.534   1.360   3.032
11075WAT      O33626   7.637   6.357   5.466
11075WAT     H133627   7.614   6.264   5.461
11075WAT     H233628   7.602   6.394   5.385
11076WAT      O33629   3.894   2.152   4.298
11076WAT     H133630   3.806   2.181   4.274
11076WAT     H233631   3.919   2.092   4.227
11077WAT      O33632   5.063   0.770   1.646
11077WAT     H133633   5.044   0.678   1.665
11077WAT     H233634   5.158   0.777   1.660
11078WAT      O33635   6.730   4.862   2.360
11078WAT     H133636   6.665   4.824   2.301
11078WAT     H233637   6.813   4.826   2.331
11079WAT      O33638   4.023   5.495   0.720
11079WAT     H133639   3.981   5.503   0.634
11079WAT     H233640   4.023   5.401   0.738
11080WAT      O33641   5.343   0.625   4.707
11080WAT     H133642   5.321   0.552   4.650
11080WAT     H233643   5.265   0.680   4.708
11081WAT      O33644   3.121   2.708   4.773
11081WAT     H133645   3.083   2.648   4.837
11081WAT     H233646   3.215   2.701   4.787
11082WAT      O33647   2.342   2.116   2.714
11082WAT     H133648   2.250   2.145   2.714
11082WAT     H233649   2.387   2.183   2.662
11083WAT      O33650   5.984   0.722   3.489
11083WAT     H133651   6.070   0.726   3.447
11083WAT     H233652   5.925   0.692   3.420
11084WAT      O33653   5.955   2.739   3.384
11084WAT     H133654   6.009   2.812   3.356
11084WAT     H233655   5.966   2.672   3.316
11085WAT      O33656   0.676   1.496   4.154
11085WAT     H133657   0.647   1.453   4.074
11085WAT     H233658   0.636   1.583   4.150
11086WAT      O33659   1.454   7.203   1.299
11086WAT     H133660   1.527   7.146   1.276
11086WAT     H233661   1.396   7.147   1.353
11087WAT      O33662   5.826   3.957   2.302
11087WAT     H133663   5.903   3.999   2.340
11087WAT     H233664   5.860   3.879   2.258
11088WAT      O33665   6.852   5.721   2.153
11088WAT     H133666   6.806   5.673   2.084
11088WAT     H233667   6.820   5.681   2.235
11089WAT      O33668   3.366   5.203   0.461
11089WAT     H133669   3.305   5.272   0.434
11089WAT     H233670   3.380   5.152   0.381
11090WAT      O33671   3.144   4.219   1.790
11090WAT     H133672   3.135   4.143   1.733
11090WAT     H233673   3.120   4.187   1.877
11091WAT      O33674   0.349   5.330   2.799
11091WAT     H133675   0.422   5.341   2.739
11091WAT     H233676   0.271   5.329   2.744
11092WAT      O33677   3.320   5.382   4.202
11092WAT     H133678   3.371   5.301   4.213
11092WAT     H233679   3.383   5.446   4.168
11093WAT      O33680   1.278   0.051   0.943
11093WAT     H133681   1.193   0.083   0.914
11093WAT     H233682   1.280  -0.041   0.917
11094WAT      O33683   7.310   4.072   4.169
11094WAT     H133684   7.315   4.114   4.083
11094WAT     H233685   7.219   4.041   4.175
11095WAT      O33686   0.669   3.745   0.083
11095WAT     H133687   0.586   3.774   0.046
11095WAT     H233688   0.646   3.708   0.168
11096WAT      O33689   7.373   2.223   2.917
11096WAT     H133690   7.343   2.210   3.007
11096WAT     H233691   7.299   2.197   2.863
11097WAT      O33692   4.492   0.125   5.462
11097WAT     H133693   4.402   0.115   5.495
11097WAT     H233694   4.490   0.207   5.413
11098WAT      O33695   0.774   3.174   3.421
11098WAT     H133696   0.766   3.082   3.446
11098WAT     H233697   0.839   3.173   3.350
11099WAT      O33698   6.768   1.167   4.588
11099WAT     H133699   6.758   1.180   4.494
11099WAT     H233700   6.800   1.078   4.597
11100WAT      O33701   3.210   6.053   3.174
11100WAT     H133702   3.270   5.984   3.202
11100WAT     H233703   3.130   6.006   3.148
11101WAT      O33704   6.972   2.629   3.390
11101WAT     H133705   7.057   2.587   3.400
11101WAT     H233706   6.934   2.589   3.312
11102WAT      O33707   1.513   4.968   4.368
11102WAT     H133708   1.597   4.954   4.324
11102WAT     H233709   1.462   5.020   4.306
11103WAT      O33710   3.365   1.967   5.975
11103WAT     H133711   3.332   1.877   5.977
11103WAT     H233712   3.384   1.988   6.066
11104WAT      O33713   2.547   1.012   4.549
11104WAT     H133714   2.507   1.094   4.577
11104WAT     H233715   2.515   0.947   4.612
11105WAT      O33716   4.447   5.792   3.785
11105WAT     H133717   4.473   5.748   3.704
11105WAT     H233718   4.513   5.860   3.798
11106WAT      O33719   0.214   1.641   0.755
11106WAT     H133720   0.228   1.674   0.844
11106WAT     H233721   0.263   1.559   0.752
11107WAT      O33722   3.536   2.918   0.727
11107WAT     H133723   3.485   2.845   0.760
11107WAT     H233724   3.543   2.978   0.802
11108WAT      O33725   6.297   5.440   3.476
11108WAT     H133726   6.290   5.447   3.380
11108WAT     H233727   6.379   5.393   3.491
11109WAT      O33728   1.955   1.389   3.023
11109WAT     H133729   1.990   1.462   3.073
11109WAT     H233730   1.903   1.430   2.953
11110WAT      O33731   2.305   0.201   3.313
11110WAT     H133732   2.342   0.162   3.234
11110WAT     H233733   2.364   0.172   3.383
11111WAT      O33734   1.613   6.189   2.404
11111WAT     H133735   1.598   6.279   2.375
11111WAT     H233736   1.558   6.136   2.346
11112WAT      O33737   1.666   5.654   4.993
11112WAT     H133738   1.582   5.687   4.961
11112WAT     H233739   1.731   5.714   4.955
11113WAT      O33740   7.271   0.625   3.527
11113WAT     H133741   7.327   0.656   3.455
11113WAT     H233742   7.329   0.570   3.580
11114WAT      O33743   0.829   5.262   2.732
11114WAT     H133744   0.746   5.296   2.767
11114WAT     H233745   0.852   5.191   2.793
11115WAT      O33746   6.371   0.001   0.167
11115WAT     H133747   6.417   0.004   0.083
11115WAT     H233748   6.384   0.088   0.204
11116WAT      O33749   5.837   1.357   3.443
11116WAT     H133750   5.886   1.361   3.360
11116WAT     H233751   5.871   1.278   3.486
11117WAT      O33752   2.592   1.231   5.897
11117WAT     H133753   2.596   1.308   5.954
11117WAT     H233754   2.579   1.267   5.809
11118WAT      O33755   2.702   2.500   3.087
11118WAT     H133756   2.614   2.526   3.056
11118WAT     H233757   2.761   2.535   3.020
11119WAT      O33758   7.607   5.872   2.803
11119WAT     H133759   7.606   5.845   2.711
11119WAT     H233760   7.677   5.820   2.842
11120WAT      O33761   7.204   3.759   6.063
11120WAT     H133762   7.285   3.725   6.024
11120WAT     H233763   7.134   3.711   6.018
11121WAT      O33764   1.306   0.766   0.369
11121WAT     H133765   1.390   0.745   0.328
11121WAT     H233766   1.322   0.754   0.463
11122WAT      O33767   4.503   5.469   4.109
11122WAT     H133768   4.563   5.539   4.082
11122WAT     H233769   4.539   5.390   4.067
11123WAT      O33770   1.203   3.272   2.846
11123WAT     H133771   1.291   3.304   2.866
11123WAT     H233772   1.168   3.240   2.929
11124WAT      O33773   4.417   3.273   4.548
11124WAT     H133774   4.357   3.204   4.577
11124WAT     H233775   4.407   3.274   4.453
11125WAT      O33776   1.758   7.103   4.755
11125WAT     H133777   1.791   7.134   4.670
11125WAT     H233778   1.684   7.160   4.774
11126WAT      O33779   0.799   0.559   6.065
11126WAT     H133780   0.789   0.643   6.020
11126WAT     H233781   0.750   0.497   6.011
11127WAT      O33782   5.493   5.384   0.237
11127WAT     H133783   5.563   5.410   0.176
11127WAT     H233784   5.435   5.328   0.185
11128WAT      O33785   1.363   2.038   2.569
11128WAT     H133786   1.412   2.026   2.651
11128WAT     H233787   1.401   1.975   2.509
11129WAT      O33788   0.722   5.918   5.444
11129WAT     H133789   0.800   5.880   5.404
11129WAT     H233790   0.701   5.993   5.389
11130WAT      O33791   0.695   0.836   5.240
11130WAT     H133792   0.605   0.868   5.235
11130WAT     H233793   0.709   0.792   5.156
11131WAT      O33794   6.708   1.251   0.671
11131WAT     H133795   6.755   1.288   0.596
11131WAT     H233796   6.777   1.231   0.735
11132WAT      O33797   4.844   0.314   0.245
11132WAT     H133798   4.908   0.263   0.194
11132WAT     H233799   4.851   0.279   0.334
11133WAT      O33800   2.047   5.448   5.425
11133WAT     H133801   1.995   5.373   5.452
11133WAT     H233802   2.067   5.432   5.332
11134WAT      O33803   7.182   3.730   3.962
11134WAT     H133804   7.114   3.797   3.953
11134WAT     H233805   7.257   3.765   3.914
11135WAT      O33806   1.129   3.904   2.248
11135WAT     H133807   1.195   3.908   2.179
11135WAT     H233808   1.103   3.995   2.262
11136WAT      O33809   6.608   6.036   2.571
11136WAT     H133810   6.667   6.052   2.497
11136WAT     H233811   6.525   6.010   2.531
11137WAT      O33812   5.449   7.089   1.109
11137WAT     H133813   5.413   7.032   1.041
11137WAT     H233814   5.514   7.143   1.063
11138WAT      O33815   2.730   6.299   0.840
11138WAT     H133816   2.721   6.337   0.753
11138WAT     H233817   2.792   6.356   0.885
11139WAT      O33818   0.945   6.300   3.166
11139WAT     H133819   1.024   6.354   3.167
11139WAT     H233820   0.915   6.301   3.257
11140WAT      O33821   4.017   6.881   5.247
11140WAT     H133822   3.937   6.897   5.298
11140WAT     H233823   4.060   6.808   5.291
11141WAT      O33824   2.404   6.002   5.435
11141WAT     H133825   2.473   6.066   5.447
11141WAT     H233826   2.394   5.960   5.521
11142WAT      O33827   1.829   3.003   3.380
11142WAT     H133828   1.827   3.019   3.285
11142WAT     H233829   1.758   3.057   3.415
11143WAT      O33830   1.110   3.091   2.516
11143WAT     H133831   1.018   3.109   2.494
11143WAT     H233832   1.158   3.116   2.437
11144WAT      O33833   2.028   6.123   0.326
11144WAT     H133834   2.091   6.120   0.398
11144WAT     H233835   1.948   6.158   0.366
11145WAT      O33836   6.869   1.680   1.383
11145WAT     H133837   6.947   1.630   1.359
11145WAT     H233838   6.903   1.766   1.410
11146WAT      O33839   1.701   5.021   2.993
11146WAT     H133840   1.730   5.108   3.021
11146WAT     H233841   1.723   5.017   2.900
11147WAT      O33842   5.068   0.991   5.295
11147WAT     H133843   5.079   0.937   5.217
11147WAT     H233844   5.029   0.933   5.360
11148WAT      O33845   1.189   6.332   0.923
11148WAT     H133846   1.146   6.253   0.891
11148WAT     H233847   1.200   6.386   0.845
11149WAT      O33848   6.853   4.958   2.647
11149WAT     H133849   6.827   5.048   2.624
11149WAT     H233850   6.801   4.903   2.590
11150WAT      O33851   1.193   6.713   1.116
11150WAT     H133852   1.158   6.642   1.171
11150WAT     H233853   1.195   6.675   1.028
11151WAT      O33854   2.765   5.135   1.777
11151WAT     H133855   2.768   5.182   1.694
11151WAT     H233856   2.677   5.152   1.811
11152WAT      O33857   4.167   2.255   4.130
11152WAT     H133858   4.185   2.343   4.163
11152WAT     H233859   4.156   2.267   4.036
11153WAT      O33860   5.983   5.056   5.835
11153WAT     H133861   5.982   5.025   5.926
11153WAT     H233862   5.992   4.977   5.783
11154WAT      O33863   6.372   0.616   1.714
11154WAT     H133864   6.435   0.544   1.722
11154WAT     H233865   6.423   0.688   1.677
11155WAT      O33866   4.803   4.446   0.285
11155WAT     H133867   4.781   4.453   0.192
11155WAT     H233868   4.720   4.458   0.330
11156WAT      O33869   5.640   7.056   5.970
11156WAT     H133870   5.677   7.143   5.951
11156WAT     H233871   5.695   6.996   5.920
11157WAT      O33872   6.032   3.175   0.776
11157WAT     H133873   6.061   3.090   0.808
11157WAT     H233874   6.013   3.162   0.683
11158WAT      O33875   5.425   6.167   2.395
11158WAT     H133876   5.366   6.095   2.372
11158WAT     H233877   5.479   6.180   2.317
11159WAT      O33878   6.317   0.442   2.343
11159WAT     H133879   6.271   0.395   2.273
11159WAT     H233880   6.369   0.508   2.297
11160WAT      O33881   5.477   5.147   2.721
11160WAT     H133882   5.546   5.149   2.787
11160WAT     H233883   5.513   5.095   2.649
11161WAT      O33884   1.539   4.965   4.641
11161WAT     H133885   1.548   4.967   4.546
11161WAT     H233886   1.444   4.969   4.656
11162WAT      O33887   3.686   0.601   1.525
11162WAT     H133888   3.695   0.531   1.461
11162WAT     H233889   3.736   0.570   1.601
11163WAT      O33890   4.881   5.975   2.624
11163WAT     H133891   4.791   5.948   2.603
11163WAT     H233892   4.917   5.900   2.671
11164WAT      O33893   7.121   4.007   5.587
11164WAT     H133894   7.092   3.990   5.498
11164WAT     H233895   7.087   4.094   5.608
11165WAT      O33896   1.756   4.381   6.072
11165WAT     H133897   1.751   4.310   6.008
11165WAT     H233898   1.677   4.372   6.125
11166WAT      O33899   6.368   2.097   2.092
11166WAT     H133900   6.347   2.176   2.141
11166WAT     H233901   6.291   2.082   2.037
11167WAT      O33902   5.204   5.422   4.963
11167WAT     H133903   5.245   5.381   4.887
11167WAT     H233904   5.206   5.516   4.944
11168WAT      O33905   4.330   0.821   4.587
11168WAT     H133906   4.400   0.882   4.613
11168WAT     H233907   4.255   0.878   4.570
11169WAT      O33908   0.406   6.651   2.988
11169WAT     H133909   0.355   6.731   2.975
11169WAT     H233910   0.372   6.614   3.069
11170WAT      O33911   6.106   4.276   2.210
11170WAT     H133912   6.063   4.357   2.183
11170WAT     H233913   6.146   4.242   2.131
11171WAT      O33914   0.490   6.818   6.219
11171WAT     H133915   0.506   6.824   6.125
11171WAT     H233916   0.434   6.893   6.239
11172WAT      O33917   2.386   1.017   3.994
11172WAT     H133918   2.394   1.110   4.018
11172WAT     H233919   2.315   0.985   4.049
11173WAT      O33920   1.979   1.281   1.001
11173WAT     H133921   1.896   1.327   0.994
11173WAT     H233922   1.968   1.203   0.946
11174WAT      O33923   2.234   3.723   0.074
11174WAT     H133924   2.246   3.786   0.003
11174WAT     H233925   2.139   3.714   0.083
11175WAT      O33926   1.070   1.802   0.089
11175WAT     H133927   0.988   1.758   0.068
11175WAT     H233928   1.084   1.863   0.017
11176WAT      O33929   4.383   7.154   0.921
11176WAT     H133930   4.441   7.205   0.864
11176WAT     H233931   4.313   7.215   0.943
11177WAT      O33932   5.082   6.493   3.070
11177WAT     H133933   5.057   6.453   2.986
11177WAT     H233934   5.161   6.543   3.049
11178WAT      O33935   3.698   4.998   2.041
11178WAT     H133936   3.621   5.013   1.987
11178WAT     H233937   3.669   5.016   2.130
11179WAT      O33938   3.794   0.225   0.475
11179WAT     H133939   3.854   0.150   0.469
11179WAT     H233940   3.746   0.223   0.392
11180WAT      O33941   1.191   4.945   5.145
11180WAT     H133942   1.282   4.917   5.155
11180WAT     H233943   1.141   4.880   5.195
11181WAT      O33944   5.039   3.028   2.279
11181WAT     H133945   4.967   3.030   2.216
11181WAT     H233946   5.109   2.981   2.234
11182WAT      O33947   4.603   0.453   0.290
11182WAT     H133948   4.652   0.386   0.241
11182WAT     H233949   4.518   0.413   0.308
11183WAT      O33950   0.998   4.470   0.113
11183WAT     H133951   0.966   4.400   0.170
11183WAT     H233952   1.045   4.425   0.043
11184WAT      O33953   0.130   5.123   3.733
11184WAT     H133954   0.116   5.051   3.672
11184WAT     H233955   0.218   5.155   3.712
11185WAT      O33956   6.413   1.743   3.553
11185WAT     H133957   6.505   1.729   3.577
11185WAT     H233958   6.415   1.759   3.459
11186WAT      O33959   3.829   5.224   1.116
11186WAT     H133960   3.815   5.315   1.141
11186WAT     H233961   3.902   5.195   1.171
11187WAT      O33962   5.176   0.777   6.015
11187WAT     H133963   5.157   0.741   6.101
11187WAT     H233964   5.090   0.801   5.979
11188WAT      O33965   4.966   6.376   4.722
11188WAT     H133966   4.880   6.334   4.714
11188WAT     H233967   4.964   6.446   4.656
11189WAT      O33968   0.432   2.020   1.015
11189WAT     H133969   0.512   2.067   1.039
11189WAT     H233970   0.460   1.961   0.945
11190WAT      O33971   0.747   4.414   4.531
11190WAT     H133972   0.773   4.341   4.475
11190WAT     H233973   0.692   4.469   4.476
11191WAT      O33974   6.605   0.416   4.976
11191WAT     H133975   6.537   0.423   4.909
11191WAT     H233976   6.564   0.365   5.046
11192WAT      O33977   3.246   0.888   1.014
11192WAT     H133978   3.175   0.872   0.952
11192WAT     H233979   3.326   0.876   0.963
11193WAT      O33980   2.357   0.677   1.190
11193WAT     H133981   2.290   0.746   1.192
11193WAT     H233982   2.317   0.607   1.138
11194WAT      O33983   2.583   2.419   2.215
11194WAT     H133984   2.620   2.478   2.280
11194WAT     H233985   2.573   2.473   2.137
11195WAT      O33986   1.517   5.921   1.444
11195WAT     H133987   1.459   5.933   1.519
11195WAT     H233988   1.460   5.925   1.368
11196WAT      O33989   2.170   7.181   4.552
11196WAT     H133990   2.101   7.131   4.509
11196WAT     H233991   2.162   7.159   4.645
11197WAT      O33992   0.914   1.428   1.620
11197WAT     H133993   0.845   1.433   1.687
11197WAT     H233994   0.955   1.343   1.635
11198WAT      O33995   3.508   0.031   3.819
11198WAT     H133996   3.493  -0.024   3.896
11198WAT     H233997   3.491  -0.027   3.745
11199WAT      O33998   3.591   6.009   0.749
11199WAT     H133999   3.528   5.948   0.787
11199WAT     H234000   3.551   6.036   0.666
11200WAT      O34001   1.361   6.706   2.202
11200WAT     H134002   1.342   6.619   2.237
11200WAT     H234003   1.445   6.730   2.242
11201WAT      O34004   0.087   0.639   3.931
11201WAT     H134005   0.006   0.617   3.885
11201WAT     H234006   0.069   0.724   3.973
11202WAT      O34007   0.794   2.486   1.864
11202WAT     H134008   0.837   2.409   1.827
11202WAT     H234009   0.809   2.556   1.800
11203WAT      O34010   4.798   5.735   3.440
11203WAT     H134011   4.851   5.736   3.360
11203WAT     H234012   4.745   5.815   3.434
11204WAT      O34013   5.049   3.573   1.567
11204WAT     H134014   5.069   3.566   1.473
11204WAT     H234015   5.110   3.512   1.608
11205WAT      O34016   3.435   5.343   5.284
11205WAT     H134017   3.459   5.252   5.298
11205WAT     H234018   3.372   5.362   5.353
11206WAT      O34019   6.463   6.169   5.921
11206WAT     H134020   6.444   6.263   5.922
11206WAT     H234021   6.488   6.150   5.831
11207WAT      O34022   7.252   4.031   2.022
11207WAT     H134023   7.269   4.120   2.052
11207WAT     H234024   7.226   4.042   1.930
11208WAT      O34025   1.411   1.272   0.941
11208WAT     H134026   1.389   1.205   0.875
11208WAT     H234027   1.477   1.230   0.995
11209WAT      O34028   4.150   1.175   1.997
11209WAT     H134029   4.235   1.162   1.956
11209WAT     H234030   4.095   1.213   1.929
11210WAT      O34031   5.017   4.807   3.276
11210WAT     H134032   4.927   4.830   3.250
11210WAT     H234033   5.066   4.809   3.194
11211WAT      O34034   6.713   3.154   4.559
11211WAT     H134035   6.626   3.186   4.532
11211WAT     H234036   6.768   3.232   4.558
11212WAT      O34037   4.047   0.364   0.813
11212WAT     H134038   4.086   0.447   0.785
11212WAT     H234039   4.123   0.309   0.835
11213WAT      O34040   5.974   0.217   5.244
11213WAT     H134041   5.992   0.222   5.150
11213WAT     H234042   6.033   0.280   5.284
11214WAT      O34043   0.537   1.854   6.072
11214WAT     H134044   0.625   1.888   6.056
11214WAT     H234045   0.480   1.931   6.067
11215WAT      O34046   5.502   4.161   5.671
11215WAT     H134047   5.472   4.198   5.588
11215WAT     H234048   5.441   4.090   5.690
11216WAT      O34049   7.585   3.082   4.947
11216WAT     H134050   7.582   3.161   4.893
11216WAT     H234051   7.678   3.058   4.949
11217WAT      O34052   2.257   2.514   2.018
11217WAT     H134053   2.179   2.511   1.964
11217WAT     H234054   2.322   2.464   1.969
11218WAT      O34055   4.666   0.432   5.596
11218WAT     H134056   4.684   0.458   5.506
11218WAT     H234057   4.751   0.435   5.639
11219WAT      O34058   4.080   6.673   3.568
11219WAT     H134059   4.151   6.611   3.583
11219WAT     H234060   4.123   6.751   3.533
11220WAT      O34061   6.176   1.902   0.795
11220WAT     H134062   6.096   1.889   0.743
11220WAT     H234063   6.179   1.826   0.853
11221WAT      O34064   2.686   2.744   0.471
11221WAT     H134065   2.661   2.652   0.464
11221WAT     H234066   2.613   2.792   0.432
11222WAT      O34067   3.563   6.739   4.556
11222WAT     H134068   3.619   6.725   4.480
11222WAT     H234069   3.489   6.789   4.522
11223WAT      O34070   1.378   2.657   1.610
11223WAT     H134071   1.343   2.580   1.566
11223WAT     H234072   1.364   2.729   1.548
11224WAT      O34073   7.603   3.157   4.275
11224WAT     H134074   7.653   3.201   4.344
11224WAT     H234075   7.549   3.226   4.237
11225WAT      O34076   5.295   5.373   3.818
11225WAT     H134077   5.312   5.452   3.767
11225WAT     H234078   5.264   5.309   3.754
11226WAT      O34079   7.506   1.741   0.499
11226WAT     H134080   7.495   1.821   0.551
11226WAT     H234081   7.417   1.711   0.481
11227WAT      O34082   7.082   5.433   1.218
11227WAT     H134083   7.037   5.349   1.220
11227WAT     H234084   7.166   5.417   1.260
11228WAT      O34085   2.506   2.573   1.379
11228WAT     H134086   2.593   2.612   1.377
11228WAT     H234087   2.510   2.507   1.448
11229WAT      O34088   0.219   2.930   2.763
11229WAT     H134089   0.302   2.907   2.722
11229WAT     H234090   0.206   2.863   2.830
11230WAT      O34091   0.654   2.697   2.498
11230WAT     H134092   0.743   2.712   2.529
11230WAT     H234093   0.636   2.771   2.440
11231WAT      O34094   1.093   4.749   4.889
11231WAT     H134095   1.178   4.717   4.918
11231WAT     H234096   1.036   4.672   4.891
11232WAT      O34097   7.421   6.109   2.590
11232WAT     H134098   7.485   6.108   2.661
11232WAT     H234099   7.352   6.167   2.621
11233WAT      O34100   0.194   0.741   1.732
11233WAT     H134101   0.172   0.820   1.682
11233WAT     H234102   0.219   0.773   1.818
11234WAT      O34103   3.892   1.926   1.268
11234WAT     H134104   3.929   1.859   1.210
11234WAT     H234105   3.843   1.984   1.210
11235WAT      O34106   5.589   6.312   2.938
11235WAT     H134107   5.562   6.329   2.848
11235WAT     H234108   5.557   6.387   2.988
11236WAT      O34109   4.322   1.686   0.091
11236WAT     H134110   4.267   1.635   0.031
11236WAT     H234111   4.310   1.777   0.063
11237WAT      O34112   7.304   0.825   1.343
11237WAT     H134113   7.299   0.902   1.285
11237WAT     H234114   7.385   0.838   1.392
11238WAT      O34115   7.307   2.369   5.190
11238WAT     H134116   7.329   2.366   5.097
11238WAT     H234117   7.231   2.312   5.199
11239WAT      O34118   6.230   1.999   5.812
11239WAT     H134119   6.156   2.022   5.756
11239WAT     H234120   6.192   1.989   5.899
11240WAT      O34121   5.751   0.384   4.751
11240WAT     H134122   5.759   0.289   4.746
11240WAT     H234123   5.753   0.413   4.659
11241WAT      O34124   6.550   1.417   1.615
11241WAT     H134125   6.589   1.450   1.535
11241WAT     H234126   6.523   1.327   1.595
11242WAT      O34127   6.610   2.416   0.916
11242WAT     H134128   6.539   2.373   0.867
11242WAT     H234129   6.682   2.421   0.853
11243WAT      O34130   7.592   3.561   5.247
11243WAT     H134131   7.574   3.528   5.159
11243WAT     H234132   7.632   3.486   5.292
11244WAT      O34133   7.219   5.206   2.237
11244WAT     H134134   7.238   5.136   2.175
11244WAT     H234135   7.167   5.164   2.306
11245WAT      O34136   7.604   1.967   3.143
11245WAT     H134137   7.644   2.053   3.153
11245WAT     H234138   7.678   1.907   3.137
11246WAT      O34139   2.687   4.153   1.542
11246WAT     H134140   2.747   4.130   1.471
11246WAT     H234141   2.650   4.237   1.516
11247WAT      O34142   3.946   2.311   2.511
11247WAT     H134143   3.952   2.400   2.545
11247WAT     H234144   4.024   2.301   2.456
11248WAT      O34145   6.546   4.539   4.005
11248WAT     H134146   6.510   4.577   3.925
11248WAT     H234147   6.630   4.501   3.977
11249WAT      O34148   0.958   0.238   4.102
11249WAT     H134149   0.912   0.238   4.186
11249WAT     H234150   0.904   0.182   4.045
11250WAT      O34151   4.059   4.924   6.122
11250WAT     H134152   4.113   4.972   6.184
11250WAT     H234153   4.066   4.833   6.149
11251WAT      O34154   2.956   6.816   2.307
11251WAT     H134155   2.960   6.760   2.229
11251WAT     H234156   3.044   6.812   2.344
11252WAT      O34157   3.389   7.138   4.846
11252WAT     H134158   3.313   7.088   4.873
11252WAT     H234159   3.431   7.084   4.780
11253WAT      O34160   5.138   0.710   2.183
11253WAT     H134161   5.081   0.659   2.126
11253WAT     H234162   5.165   0.649   2.252
11254WAT      O34163   2.880   1.296   3.915
11254WAT     H134164   2.953   1.355   3.893
11254WAT     H234165   2.836   1.338   3.988
11255WAT      O34166   3.975   3.138   1.148
11255WAT     H134167   4.037   3.208   1.124
11255WAT     H234168   3.889   3.175   1.130
11256WAT      O34169   7.183   1.053   0.450
11256WAT     H134170   7.206   1.101   0.371
11256WAT     H234171   7.121   0.986   0.420
11257WAT      O34172   3.043   6.270   5.338
11257WAT     H134173   2.959   6.248   5.297
11257WAT     H234174   3.093   6.314   5.270
11258WAT      O34175   4.631   0.469   5.335
11258WAT     H134176   4.679   0.426   5.265
11258WAT     H234177   4.572   0.529   5.291
11259WAT      O34178   0.237   2.600   2.188
11259WAT     H134179   0.298   2.673   2.198
11259WAT     H234180   0.155   2.640   2.160
11260WAT      O34181   5.933   0.780   1.691
11260WAT     H134182   5.983   0.854   1.727
11260WAT     H234183   5.900   0.734   1.768
11261WAT      O34184   2.585   3.412   5.896
11261WAT     H134185   2.526   3.420   5.821
11261WAT     H234186   2.544   3.348   5.953
11262WAT      O34187   6.363   0.369   1.133
11262WAT     H134188   6.412   0.448   1.110
11262WAT     H234189   6.316   0.346   1.053
11263WAT      O34190   4.826   0.854   3.190
11263WAT     H134191   4.794   0.858   3.280
11263WAT     H234192   4.760   0.803   3.142
11264WAT      O34193   7.392   0.591   1.210
11264WAT     H134194   7.406   0.573   1.117
11264WAT     H234195   7.344   0.674   1.211
11265WAT      O34196   6.348   1.058   5.287
11265WAT     H134197   6.428   1.108   5.307
11265WAT     H234198   6.339   0.997   5.360
11266WAT      O34199   3.377   3.588   5.549
11266WAT     H134200   3.342   3.677   5.556
11266WAT     H234201   3.316   3.543   5.490
11267WAT      O34202   3.217   4.526   4.296
11267WAT     H134203   3.156   4.459   4.264
11267WAT     H234204   3.170   4.608   4.287
11268WAT      O34205   2.316   1.234   5.274
11268WAT     H134206   2.336   1.199   5.187
11268WAT     H234207   2.340   1.327   5.268
11269WAT      O34208   7.389   4.656   5.603
11269WAT     H134209   7.421   4.746   5.608
11269WAT     H234210   7.353   4.648   5.515
11270WAT      O34211   2.177   5.974   5.245
11270WAT     H134212   2.234   6.007   5.314
11270WAT     H234213   2.232   5.914   5.195
11271WAT      O34214   4.052   7.065   6.221
11271WAT     H134215   4.122   7.109   6.271
11271WAT     H234216   4.099   7.003   6.165
11272WAT      O34217   7.480   5.279   0.189
11272WAT     H134218   7.403   5.286   0.132
11272WAT     H234219   7.526   5.362   0.178
11273WAT      O34220   4.477   2.876   0.551
11273WAT     H134221   4.417   2.918   0.489
11273WAT     H234222   4.430   2.877   0.634
11274WAT      O34223   0.288   5.187   0.684
11274WAT     H134224   0.347   5.223   0.750
11274WAT     H234225   0.205   5.178   0.729
11275WAT      O34226   6.509   2.964   1.082
11275WAT     H134227   6.485   2.872   1.096
11275WAT     H234228   6.434   3.001   1.035
11276WAT      O34229   6.990   5.168   3.139
11276WAT     H134230   7.006   5.113   3.062
11276WAT     H234231   6.896   5.162   3.154
11277WAT      O34232   2.219   1.497   1.986
11277WAT     H134233   2.214   1.520   1.893
11277WAT     H234234   2.251   1.407   1.987
11278WAT      O34235   3.329   1.258   3.955
11278WAT     H134236   3.248   1.269   3.904
11278WAT     H234237   3.301   1.265   4.046
11279WAT      O34238   1.221   1.887   3.682
11279WAT     H134239   1.134   1.856   3.657
11279WAT     H234240   1.244   1.833   3.758
11280WAT      O34241   1.126   5.510   3.543
11280WAT     H134242   1.140   5.568   3.469
11280WAT     H234243   1.184   5.435   3.526
11281WAT      O34244   4.670   4.260   5.957
11281WAT     H134245   4.730   4.320   5.913
11281WAT     H234246   4.595   4.314   5.980
11282WAT      O34247   6.572   5.531   5.900
11282WAT     H134248   6.608   5.595   5.961
11282WAT     H234249   6.545   5.457   5.955
11283WAT      O34250   4.900   3.345   2.270
11283WAT     H134251   4.863   3.314   2.187
11283WAT     H234252   4.994   3.330   2.261
11284WAT      O34253   4.991   0.934   0.421
11284WAT     H134254   4.986   0.842   0.445
11284WAT     H234255   4.951   0.980   0.495
11285WAT      O34256   3.108   5.284   6.036
11285WAT     H134257   3.131   5.376   6.046
11285WAT     H234258   3.014   5.285   6.015
11286WAT      O34259   2.686   1.206   1.591
11286WAT     H134260   2.664   1.241   1.677
11286WAT     H234261   2.738   1.274   1.550
11287WAT      O34262   7.230   1.475   1.764
11287WAT     H134263   7.146   1.505   1.731
11287WAT     H234264   7.208   1.425   1.843
11288WAT      O34265   4.116   2.433   3.482
11288WAT     H134266   4.198   2.392   3.456
11288WAT     H234267   4.108   2.510   3.425
11289WAT      O34268   6.375   1.514   0.931
11289WAT     H134269   6.397   1.497   0.840
11289WAT     H234270   6.295   1.567   0.927
11290WAT      O34271   4.094   1.347   3.148
11290WAT     H134272   4.122   1.363   3.238
11290WAT     H234273   4.105   1.252   3.136
11291WAT      O34274   0.157   4.793   0.215
11291WAT     H134275   0.201   4.737   0.152
11291WAT     H234276   0.073   4.815   0.173
11292WAT      O34277   0.575   4.961   3.469
11292WAT     H134278   0.542   4.924   3.387
11292WAT     H234279   0.510   5.027   3.492
11293WAT      O34280   6.912   2.958   1.015
11293WAT     H134281   6.884   2.957   0.924
11293WAT     H234282   6.835   2.986   1.064
11294WAT      O34283   4.688   3.642   0.333
11294WAT     H134284   4.730   3.671   0.252
11294WAT     H234285   4.631   3.569   0.305
   7.63524   7.19859   6.23415   0.00000   0.00000   2.54508   0.00000  -2.54508   3.59929
