system
34285
    1DT5   HO5'    1   2.826   2.750   4.626 -3.1627 -0.6397 -0.0472
    1DT5    O5'    2   2.818   2.835   4.582 -0.1890 -0.0942  0.2742
    1DT5    C5'    3   2.699   2.898   4.624 -0.1421  0.0875  0.0521
    1DT5    H5'    4   2.687   2.974   4.547  1.6495 -0.4664 -0.8264
    1DT5   H5''    5   2.614   2.831   4.624  0.5395 -0.7964  0.1170
    1DT5    C4'    6   2.708   2.969   4.757  0.2199  0.0609 -0.0947
    1DT5    H4'    7   2.609   2.980   4.800  0.2441  0.8114 -0.2147
    1DT5    O4'    8   2.771   2.886   4.845  0.8151  0.5327  0.1714
    1DT5    C1'    9   2.836   2.966   4.937 -0.5007 -0.4233 -0.1255
    1DT5    H1'   10   2.759   2.992   5.010 -1.4373 -3.1093 -0.0335
    1DT5     N1   11   2.943   2.886   5.001 -0.9521 -0.4245 -0.1300
    1DT5     C6   12   3.041   2.820   4.919  0.3716  0.2882 -0.3895
    1DT5     H6   13   3.034   2.828   4.812 -1.1929  2.7462 -0.1629
    1DT5     C5   14   3.147   2.754   4.976 -0.4273 -0.3588  0.0225
    1DT5     C7   15   3.237   2.666   4.885  0.3174  0.0079 -0.1998
    1DT5    H71   16   3.230   2.564   4.921  0.1209 -1.1023 -3.1539
    1DT5    H72   17   3.344   2.688   4.878  0.2167  0.0033 -2.2402
    1DT5    H73   18   3.204   2.667   4.781  4.8334  1.4009 -1.8801
    1DT5     C4   19   3.161   2.743   5.123 -0.5683 -1.1179  0.5705
    1DT5     O4   20   3.250   2.685   5.182  0.3963  0.0902 -0.1674
    1DT5     N3   21   3.066   2.807   5.192  0.2999  0.4480  0.3102
    1DT5     H3   22   3.083   2.805   5.291 -2.7900 -1.4295  0.9480
    1DT5     C2   23   2.958   2.878   5.141 -0.0216 -1.1228 -0.3996
    1DT5     O2   24   2.875   2.937   5.218 -0.1197 -0.4726 -0.8052
    1DT5    C3'   25   2.792   3.102   4.753 -0.0543  0.1069  0.4407
    1DT5    H3'   26   2.843   3.096   4.657  1.6391 -0.4066  1.3291
    1DT5    C2'   27   2.884   3.094   4.872  0.3220 -0.0589  0.7948
    1DT5    H2'   28   2.867   3.178   4.938 -0.1534  0.4954 -0.0113
    1DT5   H2''   29   2.987   3.096   4.835 -0.2933  1.3294 -1.0151
    1DT5    O3'   30   2.709   3.211   4.766  0.0681 -0.2489 -0.3479
    2DC       P   31   2.731   3.349   4.686 -0.3483 -0.0370  0.0126
    2DC     OP1   32   2.873   3.383   4.686 -0.0586  0.2040 -0.2115
    2DC     OP2   33   2.628   3.446   4.734  0.7659 -0.0141  0.1304
    2DC     O5'   34   2.704   3.311   4.534  0.1004  0.0053 -0.3497
    2DC     C5'   35   2.809   3.295   4.435 -0.2022  0.3770 -0.4843
    2DC     H5'   36   2.867   3.386   4.422  1.7501 -0.2205  2.8929
    2DC    H5''   37   2.871   3.218   4.481 -1.9033 -0.7247  0.0426
    2DC     C4'   38   2.767   3.225   4.304 -0.5661  0.4351  0.3576
    2DC     H4'   39   2.860   3.203   4.252 -1.1964 -1.1012 -0.1785
    2DC     O4'   40   2.686   3.104   4.327  0.2400 -0.0939  0.0518
    2DC     C1'   41   2.561   3.127   4.265  0.2176  0.6046  0.0161
    2DC     H1'   42   2.565   3.086   4.164  0.1149  0.1560  0.1919
    2DC      N1   43   2.455   3.049   4.337 -0.2276 -0.3602 -0.7525
    2DC      C6   44   2.425   3.080   4.468  0.5084  0.6033  0.1733
    2DC      H6   45   2.484   3.152   4.522 -0.3351  1.5165 -0.0703
    2DC      C5   46   2.334   3.002   4.539 -0.4796  0.6483  0.1235
    2DC      H5   47   2.326   3.020   4.645 -0.5015  1.1668  0.0396
    2DC      C4   48   2.267   2.908   4.465 -0.8447 -0.0789  0.4573
    2DC      N4   49   2.161   2.849   4.517  0.2540  0.1075 -0.1463
    2DC     H41   50   2.105   2.793   4.454  0.0060  1.5879 -1.3050
    2DC     H42   51   2.120   2.878   4.604  1.2405  2.0006 -0.2717
    2DC      N3   52   2.284   2.886   4.338 -0.8196 -0.8969  0.3315
    2DC      C2   53   2.383   2.950   4.272 -0.6922 -0.7817 -0.0838
    2DC      O2   54   2.397   2.920   4.154 -0.0900  0.0988 -0.4267
    2DC     C3'   55   2.685   3.321   4.221 -0.0849  0.3419  0.0219
    2DC     H3'   56   2.701   3.425   4.248  1.0734  0.3107 -0.4776
    2DC     C2'   57   2.544   3.281   4.259  0.4765 -0.2972 -0.3165
    2DC     H2'   58   2.514   3.334   4.349 -0.6024  0.5002 -1.1138
    2DC    H2''   59   2.472   3.314   4.183 -2.9186  1.1517  3.2098
    2DC     O3'   60   2.715   3.299   4.077  0.0048  0.1862 -0.2299
    3DG       P   61   2.848   3.345   4.009  0.2511 -0.3904  0.0508
    3DG     OP1   62   2.947   3.237   4.013  0.1289  0.2044  0.0376
    3DG     OP2   63   2.883   3.490   4.042  0.4544 -0.2751  0.1223
    3DG     O5'   64   2.794   3.343   3.855  0.3559  0.6968  0.2589
    3DG     C5'   65   2.769   3.222   3.783  0.2094 -0.0574  0.6439
    3DG     H5'   66   2.710   3.154   3.844  2.0018 -0.4769  1.9954
    3DG    H5''   67   2.862   3.171   3.757  1.2562  0.8626  2.3515
    3DG     C4'   68   2.684   3.256   3.654 -0.0847  0.0578 -0.0130
    3DG     H4'   69   2.591   3.302   3.687  0.1436 -0.7775  1.9454
    3DG     O4'   70   2.759   3.352   3.586  0.4819  0.2913  0.7129
    3DG     C1'   71   2.792   3.306   3.456 -0.0690  0.5106  0.2939
    3DG     H1'   72   2.724   3.344   3.379  0.0908  1.5638  0.6553
    3DG      N9   73   2.930   3.357   3.414  0.6669  0.0425  0.6145
    3DG      C8   74   3.057   3.335   3.463 -0.9028 -0.3373 -0.2202
    3DG      H8   75   3.078   3.280   3.553 -0.6404 -0.8211 -0.5709
    3DG      N7   76   3.152   3.398   3.401 -0.1017  0.3090 -0.9451
    3DG      C5   77   3.089   3.460   3.295  0.1361  0.0946 -0.5682
    3DG      C6   78   3.144   3.524   3.176  0.1825 -0.3301 -0.3232
    3DG      O6   79   3.260   3.545   3.150  0.3546 -0.1761  0.2565
    3DG      N1   80   3.052   3.565   3.082  0.0812 -0.1942 -0.0143
    3DG      H1   81   3.086   3.604   2.996 -0.4100 -0.4372 -0.3253
    3DG      C2   82   2.925   3.534   3.096  0.4899  0.8124  0.1730
    3DG      N2   83   2.856   3.542   2.986 -0.5789  0.2763 -0.0296
    3DG     H21   84   2.762   3.503   2.984 -0.5228 -0.1001  1.9077
    3DG     H22   85   2.896   3.598   2.912  2.0476 -1.7087 -0.2583
    3DG      N3   86   2.869   3.460   3.198  0.2746  0.3791  0.1010
    3DG      C4   87   2.953   3.439   3.302  0.5702  0.8781  0.2435
    3DG     C3'   88   2.650   3.145   3.554 -0.4219  0.3574 -0.0220
    3DG     H3'   89   2.633   3.054   3.614 -2.0445 -0.1256 -1.1416
    3DG     C2'   90   2.779   3.149   3.473 -0.4611 -0.0399  0.9104
    3DG     H2'   91   2.768   3.093   3.381  1.0478 -0.3228  0.8666
    3DG    H2''   92   2.862   3.111   3.533  0.6007 -0.2503 -0.6272
    3DG     O3'   93   2.526   3.172   3.491 -0.1225  0.2570  0.1042
    4DG       P   94   2.478   3.083   3.365  0.3446 -0.3695  0.1061
    4DG     OP1   95   2.327   3.086   3.363 -0.2115 -0.1134 -0.2778
    4DG     OP2   96   2.540   2.950   3.380 -0.0655 -0.1060 -0.1927
    4DG     O5'   97   2.543   3.161   3.244  0.2789  0.2745  0.1913
    4DG     C5'   98   2.482   3.279   3.200  0.2449  0.3821  0.1997
    4DG     H5'   99   2.539   3.356   3.251 -0.5504  0.3291  1.1968
    4DG    H5''  100   2.377   3.290   3.227  0.5817  1.3543  1.1810
    4DG     C4'  101   2.486   3.313   3.051 -0.4467 -0.0687  0.4156
    4DG     H4'  102   2.429   3.406   3.051  0.3124  0.4161 -0.9711
    4DG     O4'  103   2.624   3.324   2.991 -0.6182  0.0396 -0.5378
    4DG     C1'  104   2.615   3.273   2.861 -0.3221 -0.2211 -0.0922
    4DG     H1'  105   2.570   3.350   2.799  2.5269  1.7203  0.0791
    4DG      N9  106   2.749   3.248   2.804  0.0695  0.3316  0.2830
    4DG      C8  107   2.831   3.134   2.797  0.2004  0.1492  0.5180
    4DG      H8  108   2.810   3.050   2.861  0.8418  0.6145  1.3514
    4DG      N7  109   2.932   3.142   2.717 -0.1900 -0.5362  0.4401
    4DG      C5  110   2.916   3.274   2.669  0.1922  0.2663  0.2358
    4DG      C6  111   2.999   3.346   2.569 -0.2418 -0.2514 -0.5095
    4DG      O6  112   3.102   3.297   2.516  0.1299  0.0912  0.6042
    4DG      N1  113   2.952   3.465   2.533  0.3823 -0.3537  0.3042
    4DG      H1  114   2.991   3.515   2.454 -0.7504 -0.6026 -0.4370
    4DG      C2  115   2.852   3.525   2.603  0.8157 -0.8770  0.6603
    4DG      N2  116   2.816   3.639   2.562  0.1763 -0.2890  0.1001
    4DG     H21  117   2.739   3.682   2.610  1.0041 -0.3238  1.5080
    4DG     H22  118   2.876   3.685   2.494  0.7519 -1.2198 -0.0469
    4DG      N3  119   2.777   3.471   2.700  0.0476  0.4849 -0.5598
    4DG      C4  120   2.817   3.339   2.730  0.5192 -0.9649 -0.9094
    4DG     C3'  121   2.414   3.208   2.956 -0.0830 -0.6017  0.5073
    4DG     H3'  122   2.364   3.136   3.020 -1.6722  0.7862  0.9042
    4DG     C2'  123   2.525   3.152   2.868 -0.1494 -0.0107 -0.2788
    4DG     H2'  124   2.577   3.066   2.911 -0.9113 -1.2331 -1.6966
    4DG    H2''  125   2.487   3.135   2.767 -2.2180 -1.3342  0.6425
    4DG     O3'  126   2.324   3.277   2.874  0.5237  0.9380  0.0277
    5DA       P  127   2.170   3.303   2.907 -0.0623 -0.2646  0.0515
    5DA     OP1  128   2.171   3.352   3.051 -0.4174 -0.2346 -0.4495
    5DA     OP2  129   2.096   3.178   2.878  0.0275  0.2919  0.2436
    5DA     O5'  130   2.119   3.426   2.815 -0.1626  0.2377  0.9219
    5DA     C5'  131   2.149   3.561   2.843 -0.1697 -0.2188 -0.7715
    5DA     H5'  132   2.230   3.561   2.916 -0.4497 -1.3883 -0.4415
    5DA    H5''  133   2.067   3.620   2.886 -0.6478 -0.5592 -1.2001
    5DA     C4'  134   2.194   3.628   2.715 -0.4925 -0.4035 -0.7123
    5DA     H4'  135   2.206   3.735   2.730  0.9865 -0.6478 -0.0081
    5DA     O4'  136   2.311   3.564   2.676 -0.1017 -0.2528  0.0085
    5DA     C1'  137   2.311   3.546   2.538 -0.2398  0.2445 -0.0171
    5DA     H1'  138   2.337   3.643   2.497 -2.6248  1.3029  0.7763
    5DA      N9  139   2.406   3.435   2.509 -0.4605 -0.2411  0.3278
    5DA      C8  140   2.409   3.311   2.558 -0.6075  0.0469 -0.1613
    5DA      H8  141   2.329   3.289   2.628 -0.3427  3.6093  1.4876
    5DA      N7  142   2.514   3.237   2.536 -0.9597 -0.6165  0.3975
    5DA      C5  143   2.575   3.320   2.445 -0.7594  0.0246 -0.2784
    5DA      C6  144   2.690   3.309   2.364 -0.2214 -0.2335 -0.7588
    5DA      N6  145   2.776   3.211   2.354  0.5144 -0.4248 -0.3400
    5DA     H61  146   2.770   3.135   2.420 -0.8582 -0.6113 -0.6530
    5DA     H62  147   2.855   3.245   2.301  0.5513  2.8368  1.4891
    5DA      N1  148   2.732   3.411   2.294 -0.5155 -0.7726 -0.2227
    5DA      C2  149   2.667   3.521   2.288 -0.4061 -0.7285  0.2497
    5DA      H2  150   2.704   3.593   2.217  2.2623  0.2628  2.4661
    5DA      N3  151   2.563   3.555   2.368 -0.5327 -0.4604 -0.3994
    5DA      C4  152   2.521   3.450   2.438  0.2372 -0.5599 -0.1036
    5DA     C3'  153   2.092   3.616   2.598 -0.0390  0.5854 -0.4873
    5DA     H3'  154   2.001   3.569   2.634 -0.3931  0.4560 -1.5387
    5DA     C2'  155   2.166   3.523   2.502  0.7592 -0.4368 -0.4315
    5DA     H2'  156   2.132   3.422   2.528 -0.3400  0.2226  0.7686
    5DA    H2''  157   2.142   3.551   2.400 -0.8136  3.0750  0.7768
    5DA     O3'  158   2.086   3.740   2.526  0.4406  0.2145  0.2673
    6DC       P  159   1.973   3.778   2.412  0.2186  0.3487 -0.0330
    6DC     OP1  160   1.904   3.893   2.460 -0.3443  0.7431  0.0379
    6DC     OP2  161   1.893   3.651   2.391 -0.0959 -0.1042  0.1660
    6DC     O5'  162   2.052   3.816   2.281  0.2271  0.3319  0.0332
    6DC     C5'  163   2.126   3.939   2.282  0.2767 -0.6325  0.2889
    6DC     H5'  164   2.061   4.027   2.284 -0.7340 -1.3219  3.2877
    6DC    H5''  165   2.202   3.947   2.359  0.7774 -1.2515 -0.1261
    6DC     C4'  166   2.197   3.951   2.146 -0.6792 -0.2304 -0.1818
    6DC     H4'  167   2.241   4.050   2.141 -0.1570 -0.3543  1.3337
    6DC     O4'  168   2.310   3.873   2.142 -0.2247 -0.1653  0.0147
    6DC     C1'  169   2.306   3.791   2.029 -0.9093 -0.1618  0.4078
    6DC     H1'  170   2.372   3.838   1.956  0.0862  0.6424  1.7888
    6DC      N1  171   2.346   3.650   2.049  0.1191 -0.4338  0.3269
    6DC      C6  172   2.268   3.571   2.129 -0.6067  0.2744 -0.6659
    6DC      H6  173   2.173   3.597   2.174 -1.1416 -0.3785 -1.3935
    6DC      C5  174   2.320   3.450   2.167  0.0464 -0.0027  0.4533
    6DC      H5  175   2.264   3.390   2.237 -2.7039  3.7556  1.8291
    6DC      C4  176   2.438   3.400   2.096 -0.2324  0.3680 -0.1561
    6DC      N4  177   2.484   3.283   2.107  0.5322 -0.1500  0.3201
    6DC     H41  178   2.573   3.266   2.062  1.0578 -1.8044  1.8548
    6DC     H42  179   2.445   3.215   2.170  3.0502 -1.1005  0.9866
    6DC      N3  180   2.506   3.475   2.016  0.5584  0.6969  0.0760
    6DC      C2  181   2.465   3.601   2.000 -0.0007  0.1698 -0.0407
    6DC      O2  182   2.544   3.674   1.947 -0.1398 -0.4202 -0.1233
    6DC     C3'  183   2.128   3.943   2.013  0.5453 -0.2437 -0.1724
    6DC     H3'  184   2.020   3.941   2.030  0.3617 -0.5866 -1.3000
    6DC     C2'  185   2.175   3.808   1.969 -0.5884 -0.4352 -0.6950
    6DC     H2'  186   2.101   3.741   2.013 -1.2480  0.8376  0.1997
    6DC    H2''  187   2.163   3.793   1.862 -2.6550 -2.0640 -0.3035
    6DC     O3'  188   2.168   4.051   1.925 -0.1237  0.4133  0.0110
    7DA       P  189   2.064   4.096   1.811 -0.3238  0.1674 -0.1977
    7DA     OP1  190   2.114   4.222   1.753  0.0348  0.1515  0.1595
    7DA     OP2  191   1.922   4.091   1.865 -0.1125 -0.1339 -0.6749
    7DA     O5'  192   2.087   3.969   1.720  0.2754 -0.3873 -0.2609
    7DA     C5'  193   2.190   3.963   1.623 -0.3653 -0.0150  0.3823
    7DA     H5'  194   2.279   4.019   1.649 -0.8727  0.6899  0.6491
    7DA    H5''  195   2.149   4.016   1.537 -0.3760 -1.2315 -0.3935
    7DA     C4'  196   2.230   3.820   1.560  0.4938 -1.0105  0.2924
    7DA     H4'  197   2.284   3.842   1.468 -1.4529  0.7399 -0.5167
    7DA     O4'  198   2.306   3.739   1.644 -0.7938  0.6780  0.5597
    7DA     C1'  199   2.263   3.605   1.619 -0.6204 -0.5500  0.6202
    7DA     H1'  200   2.313   3.567   1.530  1.2251  0.9216  0.9608
    7DA      N9  201   2.294   3.495   1.721 -0.0522 -0.4933  0.8322
    7DA      C8  202   2.215   3.450   1.823 -0.7761 -0.2909  0.0343
    7DA      H8  203   2.138   3.516   1.859 -1.5787 -1.6434  0.8618
    7DA      N7  204   2.257   3.336   1.872  0.4969  0.2035  0.1400
    7DA      C5  205   2.362   3.297   1.793 -0.2486  0.5691  0.0949
    7DA      C6  206   2.446   3.182   1.793 -0.4351 -0.4187 -1.1225
    7DA      N6  207   2.431   3.077   1.868 -0.5881 -0.2013  0.3023
    7DA     H61  208   2.486   2.995   1.849  0.5102  0.6320 -0.2598
    7DA     H62  209   2.361   3.084   1.940 -1.6123 -0.5676 -0.6373
    7DA      N1  210   2.535   3.165   1.698 -0.2296  0.0192 -0.2521
    7DA      C2  211   2.546   3.264   1.607 -0.9634 -0.1606 -0.4112
    7DA      H2  212   2.615   3.241   1.527  1.2832 -0.9374  1.6339
    7DA      N3  213   2.483   3.384   1.601  0.3455 -0.1740 -0.2662
    7DA      C4  214   2.389   3.395   1.699  0.0476 -0.0079  0.3439
    7DA     C3'  215   2.101   3.750   1.523  0.1232 -0.0488  0.5363
    7DA     H3'  216   2.005   3.781   1.565 -0.1084 -0.3408  0.2376
    7DA     C2'  217   2.117   3.624   1.600  0.1084  0.2743 -0.6229
    7DA     H2'  218   2.063   3.539   1.559 -1.3325 -0.0852  1.8138
    7DA    H2''  219   2.064   3.639   1.695 -2.4546 -1.6077 -1.6282
    7DA     O3'  220   2.096   3.706   1.387 -0.6706 -0.2899  0.2684
    8DT       P  221   2.036   3.805   1.276 -0.4267 -0.1047 -0.1926
    8DT     OP1  222   2.125   3.919   1.232  0.5520  0.1662  0.0679
    8DT     OP2  223   1.902   3.841   1.322  0.4148  0.3846  0.4580
    8DT     O5'  224   2.007   3.711   1.149 -0.1524  0.4144  0.0270
    8DT     C5'  225   2.104   3.675   1.054 -0.2895  0.5621  0.5628
    8DT     H5'  226   2.181   3.617   1.106  0.5169  0.3248 -0.8488
    8DT    H5''  227   2.162   3.763   1.026  0.0054  0.5507  1.1043
    8DT     C4'  228   2.048   3.590   0.941 -0.2480 -0.7263 -0.3884
    8DT     H4'  229   2.131   3.584   0.871 -1.0534 -2.0259 -1.2583
    8DT     O4'  230   2.018   3.457   0.986  0.2728 -0.4727  0.3276
    8DT     C1'  231   1.879   3.428   0.964  0.3218  0.0830  0.6147
    8DT     H1'  232   1.882   3.355   0.883 -2.0891  1.4449 -0.8229
    8DT      N1  233   1.815   3.366   1.083 -0.1874 -0.3437 -0.3573
    8DT      C6  234   1.825   3.429   1.208  0.0546  0.3112 -0.7564
    8DT      H6  235   1.888   3.516   1.217  2.2026 -1.2383  0.2271
    8DT      C5  236   1.764   3.376   1.322  0.2084 -0.0114  0.1237
    8DT      C7  237   1.762   3.462   1.452  0.0540  0.0378  1.0239
    8DT     H71  238   1.658   3.476   1.479 -0.5557  0.3667 -1.3387
    8DT     H72  239   1.813   3.403   1.529  2.4266 -1.6150 -1.6281
    8DT     H73  240   1.808   3.559   1.436  0.7112 -0.3784  0.3174
    8DT      C4  241   1.695   3.245   1.316  0.4092  0.1863  0.3652
    8DT      O4  242   1.640   3.185   1.410 -0.0755 -0.0821 -0.2074
    8DT      N3  243   1.672   3.205   1.188  0.0990 -0.3225 -0.3118
    8DT      H3  244   1.627   3.116   1.174 -0.0140 -0.1520 -1.0944
    8DT      C2  245   1.739   3.249   1.075 -0.3732 -0.0961  0.2405
    8DT      O2  246   1.722   3.186   0.970 -0.2389 -0.2726 -0.0637
    8DT     C3'  247   1.923   3.644   0.863  0.0146  0.0159 -0.0094
    8DT     H3'  248   1.907   3.744   0.903  0.4412  0.5765 -1.1878
    8DT     C2'  249   1.814   3.552   0.921 -0.2928  0.5240  0.3741
    8DT     H2'  250   1.737   3.538   0.845 -2.1778  0.3584  2.2191
    8DT    H2''  251   1.764   3.608   1.000  1.3253  2.2737  0.2394
    8DT     O3'  252   1.951   3.652   0.718 -0.2135 -0.6655  0.2223
    9DC       P  253   1.924   3.534   0.602  0.1139  0.1179 -0.0007
    9DC     OP1  254   1.992   3.563   0.477 -0.1431 -0.0392  0.0361
    9DC     OP2  255   1.779   3.511   0.603 -0.0259 -0.1862  0.8560
    9DC     O5'  256   1.982   3.395   0.657  0.1614 -0.6552  0.0660
    9DC     C5'  257   2.118   3.358   0.642  0.7442 -0.1734  0.5047
    9DC     H5'  258   2.137   3.368   0.535 -3.3708  0.4821 -0.3752
    9DC    H5''  259   2.175   3.432   0.698 -1.3436  1.0569  1.1459
    9DC     C4'  260   2.134   3.208   0.675 -0.5731 -0.2759 -0.2057
    9DC     H4'  261   2.236   3.175   0.652 -0.6554 -1.5524  1.1514
    9DC     O4'  262   2.117   3.185   0.811  0.1765 -0.5586  0.5269
    9DC     C1'  263   2.053   3.064   0.824 -0.7424  0.8084 -0.1703
    9DC     H1'  264   2.118   2.984   0.788 -1.0874 -0.0598  1.0526
    9DC      N1  265   2.020   3.024   0.962  0.7309  0.6447  0.4427
    9DC      C6  266   2.044   3.097   1.077  0.1186 -0.6098  0.5457
    9DC      H6  267   2.059   3.203   1.068  1.6189 -0.9354 -1.9143
    9DC      C5  268   2.031   3.038   1.204  0.1405 -0.8993 -0.1734
    9DC      H5  269   2.037   3.103   1.290  1.7140 -1.4725  0.1854
    9DC      C4  270   2.007   2.903   1.211 -0.0089 -0.2083  0.5247
    9DC      N4  271   1.982   2.839   1.321 -0.0381 -0.0539 -0.4226
    9DC     H41  272   1.997   2.740   1.311  0.5112  0.0493 -0.6349
    9DC     H42  273   2.008   2.880   1.410  0.1702  0.0474 -0.5289
    9DC      N3  274   1.982   2.832   1.103 -0.9912 -0.3831 -0.0096
    9DC      C2  275   1.983   2.888   0.980  0.0190 -0.1829  0.4270
    9DC      O2  276   1.953   2.822   0.881 -0.3918 -0.1444  0.6029
    9DC     C3'  277   2.022   3.129   0.602 -0.2373  0.2762  0.1760
    9DC     H3'  278   1.972   3.181   0.520  1.0347  0.4996 -0.4720
    9DC     C2'  279   1.939   3.080   0.725 -0.2839  0.0964  0.1132
    9DC     H2'  280   1.863   3.153   0.751 -2.6174 -2.2975  0.4980
    9DC    H2''  281   1.894   2.983   0.706  1.1169 -0.3976 -0.8832
    9DC     O3'  282   2.059   3.002   0.556 -0.5597 -0.4931 -0.0109
   10DG       P  283   2.080   2.964   0.401  0.2207  0.2375 -0.2447
   10DG     OP1  284   1.963   3.006   0.325  0.2420 -0.1608  0.3677
   10DG     OP2  285   2.119   2.820   0.398  0.4671 -0.1993 -0.1900
   10DG     O5'  286   2.204   3.061   0.367 -0.0814  0.0619 -0.5104
   10DG     C5'  287   2.330   3.037   0.414  0.2359  0.4115  1.2204
   10DG     H5'  288   2.363   2.958   0.346  2.3085  2.3180 -0.1296
   10DG    H5''  289   2.331   3.002   0.518 -0.7687 -0.8793  0.8368
   10DG     C4'  290   2.427   3.153   0.394  0.1422 -0.3347  0.0078
   10DG     H4'  291   2.454   3.174   0.290  1.3038  1.3538  0.6045
   10DG     O4'  292   2.388   3.273   0.457  0.2300  0.4337  0.7987
   10DG     C1'  293   2.500   3.357   0.486  0.0215  0.0564  0.4042
   10DG     H1'  294   2.506   3.428   0.404 -0.9115  1.1875  1.2837
   10DG      N9  295   2.471   3.424   0.613 -0.5123 -0.8709 -0.0018
   10DG      C8  296   2.445   3.559   0.628  0.1362 -0.6232  0.1985
   10DG      H8  297   2.441   3.628   0.545  0.2561  0.2196  0.8821
   10DG      N7  298   2.434   3.592   0.753 -0.0987 -0.5116 -0.2004
   10DG      C5  299   2.437   3.472   0.823  0.4732  0.7487  0.7596
   10DG      C6  300   2.402   3.432   0.957  0.3176  0.3477 -0.8564
   10DG      O6  301   2.369   3.507   1.049 -0.2105 -0.0711  0.2371
   10DG      N1  302   2.408   3.299   0.986 -0.5147  0.0442 -0.5565
   10DG      H1  303   2.383   3.272   1.080  0.1943  0.5788 -0.2039
   10DG      C2  304   2.434   3.206   0.896 -0.3437  0.6205 -0.4572
   10DG      N2  305   2.426   3.085   0.942 -0.4054 -0.6374 -0.3005
   10DG     H21  306   2.379   3.059   1.028 -1.3147 -0.0767 -0.6166
   10DG     H22  307   2.439   3.017   0.869  1.4742  0.4086 -0.9806
   10DG      N3  308   2.463   3.233   0.768  0.2150  0.2955 -0.5971
   10DG      C4  309   2.456   3.364   0.734  0.2016  0.1066 -0.3344
   10DG     C3'  310   2.565   3.126   0.455  1.7518 -0.5925  0.7182
   10DG     H3'  311   2.548   3.072   0.548 -0.1629 -0.1541  0.6625
   10DG     C2'  312   2.623   3.264   0.487  0.4705  0.3504 -0.1529
   10DG     H2'  313   2.696   3.301   0.415  0.9809  1.0849  0.7017
   10DG    H2''  314   2.670   3.272   0.585 -0.3839  0.1462  0.2828
   10DG     O3'  315   2.648   3.045   0.375 -0.3966 -0.2429 -0.0027
   11DG       P  316   2.804   3.014   0.422 -0.1324 -0.8232 -0.1232
   11DG     OP1  317   2.879   3.136   0.406 -0.5201  0.4440  0.2162
   11DG     OP2  318   2.840   2.892   0.351  0.1332  0.2524 -0.0199
   11DG     O5'  319   2.792   2.971   0.573 -0.5452 -0.5215  0.1559
   11DG     C5'  320   2.864   2.860   0.631  0.1531 -0.2983 -0.5302
   11DG     H5'  321   2.815   2.771   0.592 -2.9126  1.7155 -1.6294
   11DG    H5''  322   2.970   2.858   0.605  0.2991  0.4857 -0.0296
   11DG     C4'  323   2.861   2.859   0.778  0.2478 -0.0972  0.0716
   11DG     H4'  324   2.896   2.758   0.799  2.4555  0.8435  1.2370
   11DG     O4'  325   2.944   2.959   0.833 -0.3070  0.7811 -0.0429
   11DG     C1'  326   2.896   2.996   0.956 -0.4043  0.1468  0.1217
   11DG     H1'  327   2.973   2.995   1.033  1.5306  1.5559 -1.6916
   11DG      N9  328   2.841   3.135   0.942 -0.9804  0.0727  0.6200
   11DG      C8  329   2.817   3.207   0.823  0.3687 -0.0097 -0.6747
   11DG      H8  330   2.847   3.160   0.730  2.3317 -1.7842  0.7570
   11DG      N7  331   2.778   3.328   0.839 -0.4905 -0.4570 -0.1710
   11DG      C5  332   2.770   3.341   0.978  0.1010  0.5801  0.1291
   11DG      C6  333   2.740   3.450   1.060  0.4008  0.1116  0.3430
   11DG      O6  334   2.708   3.563   1.019  0.0681  0.4175 -0.1212
   11DG      N1  335   2.757   3.433   1.195  0.1839  0.7711  0.1561
   11DG      H1  336   2.736   3.512   1.255  2.1709  1.0422  0.5569
   11DG      C2  337   2.792   3.311   1.246  0.1065 -0.3747 -0.3832
   11DG      N2  338   2.817   3.310   1.374 -0.0362  0.0993  0.6062
   11DG     H21  339   2.848   3.220   1.410 -1.0159 -2.0665 -3.4135
   11DG     H22  340   2.804   3.397   1.423 -1.7583 -0.4968  1.3001
   11DG      N3  341   2.820   3.201   1.173  0.3171  0.8016  0.6102
   11DG      C4  342   2.808   3.221   1.039 -0.3960 -0.0045 -0.5392
   11DG     C3'  343   2.723   2.880   0.842 -0.3259  0.0275  0.3030
   11DG     H3'  344   2.663   2.965   0.808 -0.2978  0.7892  2.0409
   11DG     C2'  345   2.778   2.900   0.983 -0.1535 -0.6835  0.2044
   11DG     H2'  346   2.821   2.810   1.027 -0.4194 -0.3781  1.0995
   11DG    H2''  347   2.699   2.934   1.050 -1.5122  1.5255 -2.3110
   11DG     O3'  348   2.651   2.756   0.833  0.0285 -0.5662  0.4494
   12DA       P  349   2.493   2.744   0.864  0.0884  0.0911 -0.1123
   12DA     OP1  350   2.465   2.603   0.841  0.4057  0.3304 -0.7064
   12DA     OP2  351   2.407   2.844   0.795  0.0220 -0.0225  0.2490
   12DA     O5'  352   2.488   2.787   1.022  0.1432 -0.0395  0.1051
   12DA     C5'  353   2.531   2.689   1.121  0.6968 -0.3568 -0.4678
   12DA     H5'  354   2.506   2.587   1.095  0.6508 -0.4879  0.0803
   12DA    H5''  355   2.640   2.688   1.125  0.7065 -3.3946  1.5334
   12DA     C4'  356   2.486   2.710   1.260  0.5589  0.3355  0.3010
   12DA     H4'  357   2.520   2.631   1.328 -1.2762  0.1512  1.0583
   12DA     O4'  358   2.534   2.826   1.316  0.3870 -0.2495  0.0306
   12DA     C1'  359   2.439   2.898   1.393 -0.8061  0.3856 -0.1526
   12DA     H1'  360   2.441   2.859   1.495  2.3263  0.2968 -0.1699
   12DA      N9  361   2.433   3.041   1.382  0.0065 -0.6676  0.1242
   12DA      C8  362   2.503   3.126   1.290  0.8228  0.4963  0.0934
   12DA      H8  363   2.590   3.092   1.236 -1.5240 -0.8741 -3.1448
   12DA      N7  364   2.444   3.237   1.259  0.2078 -0.2257  0.1435
   12DA      C5  365   2.333   3.233   1.344  0.2540 -0.5316 -0.0010
   12DA      C6  366   2.234   3.329   1.374 -0.7602 -0.7233  0.0328
   12DA      N6  367   2.225   3.445   1.312  0.5115  0.0296 -0.0182
   12DA     H61  368   2.308   3.464   1.258  2.3417 -0.3125  2.4760
   12DA     H62  369   2.168   3.523   1.341  0.3417  0.6691 -1.9651
   12DA      N1  370   2.141   3.301   1.464 -0.1217  0.1414 -0.4621
   12DA      C2  371   2.147   3.188   1.535  0.3844  0.4086 -0.3419
   12DA      H2  372   2.077   3.186   1.616 -1.7585  0.4381 -2.1078
   12DA      N3  373   2.237   3.094   1.518 -0.2134  0.5943 -0.1631
   12DA      C4  374   2.332   3.118   1.426 -0.0438 -0.4675  0.2942
   12DA     C3'  375   2.334   2.720   1.270  0.5301  0.9290 -0.1091
   12DA     H3'  376   2.281   2.705   1.176  1.3875  0.3004 -0.5119
   12DA     C2'  377   2.309   2.856   1.318  0.1554  0.1942  0.3969
   12DA     H2'  378   2.299   2.927   1.237  0.3103  4.0139  3.4170
   12DA    H2''  379   2.228   2.868   1.390  1.3085  0.5083  1.6907
   12DA     O3'  380   2.293   2.619   1.357  0.5927  0.6484 -0.4037
   13DT       P  381   2.282   2.459   1.309  0.2117  0.1462 -0.2609
   13DT     OP1  382   2.267   2.454   1.162 -0.8576  0.1964  0.1392
   13DT     OP2  383   2.178   2.398   1.394 -0.5721 -0.4525 -0.0029
   13DT     O5'  384   2.424   2.389   1.337 -0.0855  0.7300  0.5100
   13DT     C5'  385   2.479   2.360   1.462 -0.3069 -0.7733  0.4913
   13DT     H5'  386   2.400   2.319   1.525 -0.8135  0.8729  0.9607
   13DT    H5''  387   2.492   2.456   1.512 -0.1766  0.5638 -1.9804
   13DT     C4'  388   2.611   2.279   1.460 -0.4747 -0.2850  0.6388
   13DT     H4'  389   2.649   2.296   1.561  2.5536  1.0101 -0.5893
   13DT     O4'  390   2.580   2.140   1.433  0.1192 -0.4827  0.0734
   13DT     C1'  391   2.653   2.106   1.313 -0.3505  0.5254  0.0986
   13DT     H1'  392   2.746   2.060   1.347 -0.5337  0.2111  0.1865
   13DT      N1  393   2.557   2.021   1.235 -0.1849  0.7038 -0.3782
   13DT      C6  394   2.442   2.074   1.188  0.2333 -0.3635 -0.2742
   13DT      H6  395   2.414   2.176   1.209  0.7475 -0.5600  1.4951
   13DT      C5  396   2.362   2.001   1.103  0.2164 -0.3455  0.1338
   13DT      C7  397   2.238   2.062   1.047 -0.2857  0.2970  0.0527
   13DT     H71  398   2.261   2.083   0.942  0.1456  0.6753  0.2205
   13DT     H72  399   2.208   2.151   1.101  0.7438  0.7889 -0.1460
   13DT     H73  400   2.160   1.989   1.065 -0.5159  0.8099  1.1798
   13DT      C4  401   2.396   1.864   1.076 -0.3364  0.5620  0.7159
   13DT      O4  402   2.328   1.779   1.014 -0.7581  0.1365 -0.2341
   13DT      N3  403   2.506   1.812   1.134  0.0330  0.1035  0.8312
   13DT      H3  404   2.530   1.714   1.129  0.3454  0.1961  0.4194
   13DT      C2  405   2.580   1.885   1.222 -0.4915 -0.6739  0.8141
   13DT      O2  406   2.663   1.826   1.287  0.0452  0.1225  0.5938
   13DT     C3'  407   2.713   2.328   1.358 -0.3070 -0.3213  0.8556
   13DT     H3'  408   2.692   2.433   1.336 -1.6872 -1.2667 -3.1575
   13DT     C2'  409   2.680   2.236   1.242  0.7366  0.3761 -0.0689
   13DT     H2'  410   2.596   2.283   1.191 -0.4930 -1.3764  0.2483
   13DT    H2''  411   2.765   2.242   1.174  1.2169  3.8078  0.6615
   13DT     O3'  412   2.839   2.301   1.425  0.5777 -0.4449  0.1149
   14DT       P  413   2.982   2.332   1.371 -0.3543 -0.1534  0.2311
   14DT     OP1  414   3.001   2.254   1.248  0.0154 -0.1134  0.4656
   14DT     OP2  415   3.070   2.304   1.483  0.0118  0.1380 -0.2021
   14DT     O5'  416   2.997   2.489   1.350 -0.6749  0.5648  0.3230
   14DT     C5'  417   2.990   2.528   1.222 -0.6539 -0.2885  0.4722
   14DT     H5'  418   2.898   2.489   1.178 -0.8730  0.5917  0.1260
   14DT    H5''  419   3.078   2.492   1.168  0.4910  0.9483  1.4507
   14DT     C4'  420   2.993   2.683   1.204 -0.1967  0.0796 -0.9610
   14DT     H4'  421   3.005   2.701   1.097  0.8554  0.9290 -0.7119
   14DT     O4'  422   2.873   2.736   1.265  0.3497  0.3629 -0.7410
   14DT     C1'  423   2.912   2.833   1.357  0.0930  0.7016 -0.2663
   14DT     H1'  424   2.900   2.927   1.304  2.0651  0.9494 -0.3463
   14DT      N1  425   2.835   2.826   1.475  0.8660  0.5928 -0.5182
   14DT      C6  426   2.828   2.715   1.549  0.7187 -0.4481 -0.5937
   14DT      H6  427   2.864   2.620   1.511  2.4608 -0.0620  0.0193
   14DT      C5  428   2.758   2.712   1.663  1.0956  0.1689  0.6514
   14DT      C7  429   2.753   2.578   1.736  0.4852 -0.5671  0.5046
   14DT     H71  430   2.833   2.568   1.809  1.8991  0.2331 -0.8611
   14DT     H72  431   2.654   2.579   1.781  0.1022  0.4815 -0.3233
   14DT     H73  432   2.748   2.492   1.669  2.7219 -0.7656  0.5041
   14DT      C4  433   2.688   2.830   1.716  0.4543 -0.3838 -0.3504
   14DT      O4  434   2.606   2.830   1.810  0.5129  1.3132 -0.3549
   14DT      N3  435   2.697   2.944   1.632 -0.2344  0.1230 -0.4137
   14DT      H3  436   2.641   3.023   1.659  1.5889  0.9540  1.2041
   14DT      C2  437   2.775   2.948   1.519  0.1908  0.4861  0.6597
   14DT      O2  438   2.779   3.050   1.455  0.0145 -0.6961  0.4040
   14DT     C3'  439   3.114   2.756   1.260 -0.6645 -0.4297 -0.8039
   14DT     H3'  440   3.194   2.683   1.273  0.9239  0.9401 -2.2938
   14DT     C2'  441   3.061   2.810   1.388  0.5420  0.1149  0.5233
   14DT     H2'  442   3.118   2.898   1.418  0.1909  0.4049  0.3328
   14DT    H2''  443   3.074   2.736   1.468 -0.0621  0.2003  0.7021
   14DT     O3'  444   3.166   2.862   1.177  0.4717 -0.3524 -0.3254
   15DG       P  445   3.312   2.929   1.195 -0.0454  0.0099  0.1042
   15DG     OP1  446   3.360   2.978   1.064 -0.4477  0.4311  0.0498
   15DG     OP2  447   3.392   2.829   1.271  0.6255  0.4797  0.0058
   15DG     O5'  448   3.269   3.053   1.282  0.2133  0.1853  0.4004
   15DG     C5'  449   3.189   3.158   1.225 -0.2887 -0.0242 -0.7727
   15DG     H5'  450   3.241   3.206   1.142  0.0778  3.8597  1.4611
   15DG    H5''  451   3.099   3.111   1.187 -0.0875  1.1125 -2.7892
   15DG     C4'  452   3.146   3.257   1.334 -0.3554  0.2929  0.2600
   15DG     H4'  453   3.081   3.328   1.283 -0.5128 -0.7506 -1.0537
   15DG     O4'  454   3.060   3.196   1.431  0.1493 -0.0212  0.3665
   15DG     C1'  455   3.075   3.283   1.538  0.8737  1.4098  0.1772
   15DG     H1'  456   3.017   3.371   1.512 -3.9509 -1.4545  0.0858
   15DG      N9  457   3.010   3.218   1.651  0.3351 -0.2594 -0.6808
   15DG      C8  458   3.023   3.092   1.708  0.6812  0.1555  0.5360
   15DG      H8  459   3.083   3.012   1.667 -0.8261 -1.7327  1.7935
   15DG      N7  460   2.948   3.071   1.815 -0.1372  1.0046 -0.0032
   15DG      C5  461   2.879   3.196   1.828  0.1709 -0.7595 -0.3485
   15DG      C6  462   2.781   3.239   1.922  0.3809 -0.2147  0.5476
   15DG      O6  463   2.744   3.175   2.022  0.1837  0.1633 -0.4854
   15DG      N1  464   2.726   3.368   1.893 -0.5731 -0.2596 -0.0228
   15DG      H1  465   2.659   3.414   1.953  1.6584  1.8649  1.0065
   15DG      C2  466   2.773   3.446   1.791 -0.5011 -0.6953 -0.6016
   15DG      N2  467   2.734   3.569   1.777 -0.4808  0.1702 -0.2653
   15DG     H21  468   2.740   3.615   1.687 -1.0894 -0.6426 -0.7402
   15DG     H22  469   2.656   3.594   1.836 -1.3237 -1.3918 -0.6385
   15DG      N3  470   2.861   3.403   1.696 -0.1543  0.3026 -0.2269
   15DG      C4  471   2.914   3.282   1.723  0.4048  0.4943 -0.5980
   15DG     C3'  472   3.259   3.325   1.399 -0.1730  0.0313  0.6806
   15DG     H3'  473   3.352   3.274   1.376  0.0133  1.6507 -2.8632
   15DG     C2'  474   3.220   3.316   1.545  0.2694  0.3224 -0.3116
   15DG     H2'  475   3.235   3.415   1.588  1.2770  1.2148 -2.5628
   15DG    H2''  476   3.279   3.236   1.590  2.3867  2.1440  0.3367
   15DG     O3'  477   3.259   3.459   1.345  0.1951  0.6604  0.0457
   16DT       P  478   3.379   3.558   1.364  0.0112 -0.1533 -0.0944
   16DT     OP1  479   3.359   3.659   1.260 -0.9585 -0.4988 -0.0330
   16DT     OP2  480   3.505   3.480   1.361  0.0151 -0.8925 -0.0406
   16DT     O5'  481   3.364   3.621   1.506 -0.1807 -0.3491 -0.4767
   16DT     C5'  482   3.256   3.713   1.528 -0.4021  0.2931  0.3472
   16DT     H5'  483   3.283   3.803   1.473 -2.9402  0.3586 -0.9192
   16DT    H5''  484   3.167   3.663   1.490  0.4024 -1.0334  0.1194
   16DT     C4'  485   3.210   3.744   1.665 -0.1457 -0.0919  0.3952
   16DT     H4'  486   3.137   3.825   1.659  0.5305  0.6960  2.1016
   16DT     O4'  487   3.160   3.627   1.726 -0.1182 -0.3260  0.0005
   16DT     C1'  488   3.150   3.659   1.864 -0.6228 -0.4982  0.1020
   16DT     H1'  489   3.071   3.734   1.874 -1.2480 -1.0499 -0.5717
   16DT      N1  490   3.126   3.538   1.947 -0.2827 -0.8482  0.3576
   16DT      C6  491   3.202   3.423   1.942 -1.0154 -0.5860  0.9820
   16DT      H6  492   3.281   3.422   1.869 -1.8070  0.5790  0.0713
   16DT      C5  493   3.176   3.319   2.029 -0.7275 -0.6196 -0.1568
   16DT      C7  494   3.271   3.210   2.029 -0.9983  0.1071 -0.1742
   16DT     H71  495   3.240   3.124   1.970  0.5321 -0.4729 -0.1824
   16DT     H72  496   3.290   3.175   2.130  1.6585  0.5704 -0.4356
   16DT     H73  497   3.361   3.240   1.976 -0.9555  2.4708  1.0659
   16DT      C4  498   3.061   3.316   2.108  0.4739 -0.6458  0.1793
   16DT      O4  499   3.017   3.230   2.179  0.3060  0.6830  0.3603
   16DT      N3  500   2.980   3.429   2.102  0.4627 -0.2581 -0.5717
   16DT      H3  501   2.904   3.428   2.168 -0.8358 -1.3781 -1.9838
   16DT      C2  502   3.010   3.543   2.028 -0.3830  0.5311 -0.6252
   16DT      O2  503   2.935   3.636   2.041  0.2307  0.2585  0.0591
   16DT     C3'  504   3.323   3.792   1.757 -0.2123  0.5205 -0.3460
   16DT     H3'  505   3.417   3.745   1.729 -1.8685 -2.9933 -0.6177
   16DT     C2'  506   3.278   3.731   1.890 -0.3919  0.1259  0.6431
   16DT     H2'  507   3.261   3.802   1.971 -0.2558  0.2183  0.5898
   16DT    H2''  508   3.358   3.667   1.927 -0.2413 -1.2142 -1.7922
   16DT     O3'  509   3.340   3.930   1.757  1.0143 -0.2308  0.4288
   17DC       P  510   3.422   4.021   1.861  0.2705  0.1162 -0.0684
   17DC     OP1  511   3.459   4.133   1.774 -0.4907 -0.0985  0.0868
   17DC     OP2  512   3.523   3.942   1.931 -0.4106  0.0804 -0.2176
   17DC     O5'  513   3.320   4.067   1.969  0.3164 -0.7171  0.2558
   17DC     C5'  514   3.201   4.140   1.941  0.2933  0.3993  0.5864
   17DC     H5'  515   3.232   4.242   1.919  0.1955  0.2991 -0.0576
   17DC    H5''  516   3.152   4.104   1.850  1.1948 -1.0502  0.6433
   17DC     C4'  517   3.099   4.123   2.051 -0.4493 -0.3186 -0.1796
   17DC     H4'  518   3.004   4.167   2.022  0.0003 -0.0438 -1.2797
   17DC     O4'  519   3.081   3.980   2.073 -0.0964 -0.4791  0.1506
   17DC     C1'  520   3.089   3.960   2.212 -0.3692  0.3007 -0.8236
   17DC     H1'  521   2.992   3.962   2.262  0.4475 -0.7876  0.8934
   17DC      N1  522   3.143   3.816   2.239 -0.7435  0.1281 -0.5474
   17DC      C6  523   3.281   3.786   2.226 -0.2764  0.0619 -1.0614
   17DC      H6  524   3.338   3.859   2.172  0.2023 -0.0092 -0.6542
   17DC      C5  525   3.332   3.666   2.267  0.3287 -0.1813  0.4490
   17DC      H5  526   3.434   3.641   2.239  0.1454  0.4828 -0.9001
   17DC      C4  527   3.238   3.573   2.312 -0.0279  0.0807  0.4156
   17DC      N4  528   3.267   3.447   2.335 -0.3726 -0.1862  0.4260
   17DC     H41  529   3.197   3.387   2.376  1.1215 -1.1232  1.7143
   17DC     H42  530   3.365   3.421   2.328  1.1409  4.4847  0.5373
   17DC      N3  531   3.114   3.598   2.334  0.3439 -0.3954 -1.0784
   17DC      C2  532   3.067   3.721   2.300  0.5383  0.1367 -0.9254
   17DC      O2  533   2.947   3.748   2.328 -0.1327  0.6302  0.2026
   17DC     C3'  534   3.127   4.189   2.182 -0.1789  0.2485  0.5989
   17DC     H3'  535   3.213   4.255   2.179  0.7642 -0.9160  1.3029
   17DC     C2'  536   3.172   4.078   2.268  0.1934  0.0387  0.2847
   17DC     H2'  537   3.154   4.103   2.373 -0.7162 -0.9927  0.3939
   17DC    H2''  538   3.278   4.056   2.256 -0.0387 -0.6953 -0.5096
   17DC     O3'  539   3.027   4.276   2.241  0.0483  0.3292 -0.0512
   18DT       P  540   3.032   4.352   2.387  0.2221  0.2712 -0.0573
   18DT     OP1  541   2.974   4.484   2.373 -0.2141 -0.0329  0.4926
   18DT     OP2  542   3.173   4.349   2.435  0.4546  0.1396 -0.0395
   18DT     O5'  543   2.940   4.267   2.490  0.2199  0.7338  0.0830
   18DT     C5'  544   2.823   4.199   2.443 -0.1381 -0.3805  0.2358
   18DT     H5'  545   2.736   4.265   2.443 -1.1303 -1.5853 -1.5879
   18DT    H5''  546   2.826   4.148   2.347 -1.1835 -0.6892  0.3491
   18DT     C4'  547   2.788   4.085   2.542 -0.3813 -0.3595 -0.1295
   18DT     H4'  548   2.695   4.041   2.508 -1.9941  2.3656  0.4817
   18DT     O4'  549   2.883   3.983   2.536 -0.0927  0.1899  0.1984
   18DT     C1'  550   2.921   3.949   2.666 -0.1855  0.0605 -0.3992
   18DT     H1'  551   2.846   3.877   2.700 -1.0344  0.0251 -2.2257
   18DT      N1  552   3.061   3.890   2.680 -0.6982 -0.1646  0.3240
   18DT      C6  553   3.165   3.954   2.618 -0.6495  0.4508 -0.0490
   18DT      H6  554   3.165   4.059   2.592 -1.4982  0.2360 -1.0097
   18DT      C5  555   3.280   3.888   2.591 -0.6400  0.2003  0.0272
   18DT      C7  556   3.398   3.965   2.533 -0.1247 -0.0674  0.0541
   18DT     H71  557   3.482   3.967   2.602  0.2241 -0.4642 -0.3509
   18DT     H72  558   3.417   3.903   2.445 -1.8831 -0.7593  0.1388
   18DT     H73  559   3.370   4.067   2.505  1.2841  0.2247 -0.4183
   18DT      C4  560   3.286   3.746   2.625 -0.1412  0.1853 -0.3584
   18DT      O4  561   3.381   3.672   2.603  0.0618  0.1827  0.0422
   18DT      N3  562   3.181   3.693   2.688 -0.4115  0.4630  0.1409
   18DT      H3  563   3.178   3.595   2.714  1.2081  0.0505 -1.0571
   18DT      C2  564   3.067   3.761   2.724 -0.9643 -0.6916  0.1670
   18DT      O2  565   2.984   3.703   2.792 -0.1043  0.2479 -0.5063
   18DT     C3'  566   2.777   4.131   2.688  0.2659  0.2327 -0.0993
   18DT     H3'  567   2.781   4.239   2.701  0.6075  0.4717 -1.9830
   18DT     C2'  568   2.901   4.077   2.745 -0.0593  0.2011 -0.6578
   18DT     H2'  569   2.982   4.148   2.734  1.3755 -1.5246 -1.7760
   18DT    H2''  570   2.870   4.043   2.844 -0.3511  0.9299 -0.4860
   18DT     O3'  571   2.666   4.063   2.754 -0.2029  0.3819  0.1574
   19DG       P  572   2.588   4.114   2.882  0.4317 -0.0510  0.2687
   19DG     OP1  573   2.465   4.039   2.863  0.4364 -0.4224  0.5158
   19DG     OP2  574   2.592   4.263   2.886  0.8301  0.1309 -0.0360
   19DG     O5'  575   2.653   4.056   3.011  0.2003  0.4380 -0.0545
   19DG     C5'  576   2.654   3.919   3.038 -0.2222  0.2982  0.1183
   19DG     H5'  577   2.657   3.877   2.937  0.7033  2.0178 -0.6154
   19DG    H5''  578   2.565   3.893   3.095  0.6980 -0.2182  1.3697
   19DG     C4'  579   2.783   3.873   3.113  1.2269 -0.1435 -0.3920
   19DG     H4'  580   2.776   3.765   3.119 -0.8979 -0.0093  0.4212
   19DG     O4'  581   2.896   3.909   3.045  0.5164 -0.1890  0.4857
   19DG     C1'  582   2.985   3.969   3.139  0.7763 -0.2578 -0.2888
   19DG     H1'  583   3.036   3.896   3.201 -0.6384 -0.6493  0.4684
   19DG      N9  584   3.090   4.044   3.073 -0.0528 -0.5411 -0.1415
   19DG      C8  585   3.096   4.172   3.028 -0.3676  0.5571 -0.2552
   19DG      H8  586   3.025   4.249   3.057  1.0032  0.9316  2.4445
   19DG      N7  587   3.207   4.203   2.967 -0.4759 -0.2680 -0.2126
   19DG      C5  588   3.275   4.083   2.965 -0.1311  0.2528  0.1758
   19DG      C6  589   3.407   4.046   2.913  0.2810 -0.7100 -0.4971
   19DG      O6  590   3.475   4.122   2.846 -0.0377  0.7286 -0.4436
   19DG      N1  591   3.433   3.914   2.922  0.4854 -0.0992  0.0910
   19DG      H1  592   3.514   3.879   2.872  1.1183 -3.1498  2.9325
   19DG      C2  593   3.357   3.821   2.987 -0.9911 -0.0889  0.5747
   19DG      N2  594   3.390   3.700   2.960  0.5807  0.3556  0.0606
   19DG     H21  595   3.451   3.674   2.883  0.5028 -0.0090  0.1203
   19DG     H22  596   3.332   3.627   2.998  2.3784 -1.1457  0.0996
   19DG      N3  597   3.235   3.850   3.040 -0.5253  0.0685 -0.8013
   19DG      C4  598   3.206   3.984   3.034  0.4127 -0.4365 -0.0089
   19DG     C3'  599   2.790   3.929   3.260  0.1153  0.5538  0.3324
   19DG     H3'  600   2.694   3.974   3.286  0.7285  2.0426  0.1397
   19DG     C2'  601   2.886   4.043   3.237 -0.2868 -0.1629 -0.2757
   19DG     H2'  602   2.838   4.123   3.180  0.7036 -0.0026 -0.9151
   19DG    H2''  603   2.935   4.089   3.322  1.2798 -1.9306 -0.1530
   19DG     O3'  604   2.818   3.821   3.349 -0.2779  0.0625  0.0174
   20DA3      P  605   2.815   3.847   3.506  0.2839 -0.0174  0.0309
   20DA3    OP1  606   2.805   3.714   3.565  0.1122 -0.2830  0.4381
   20DA3    OP2  607   2.710   3.948   3.541 -0.4094  0.2094 -0.4017
   20DA3    O5'  608   2.956   3.905   3.535  0.1619 -0.7540 -0.1349
   20DA3    C5'  609   3.077   3.835   3.520  0.0625 -0.5003  0.3569
   20DA3    H5'  610   3.086   3.778   3.429  0.5490  0.3360 -0.1357
   20DA3   H5''  611   3.099   3.768   3.603  0.3718 -2.6287 -1.3695
   20DA3    C4'  612   3.195   3.934   3.512  0.0744 -0.2615  0.0350
   20DA3    H4'  613   3.280   3.872   3.482 -1.2555 -2.5981  0.7624
   20DA3    O4'  614   3.169   4.024   3.406  0.4891  0.2678  0.1560
   20DA3    C1'  615   3.239   4.141   3.445 -0.1953 -0.0645  0.3847
   20DA3    H1'  616   3.347   4.125   3.440 -0.3599 -0.7021 -1.8801
   20DA3     N9  617   3.220   4.251   3.351  0.0181  0.0474 -0.2557
   20DA3     C8  618   3.118   4.343   3.350 -0.3444 -0.4855 -0.1303
   20DA3     H8  619   3.025   4.339   3.406 -0.9094 -1.5902 -1.0970
   20DA3     N7  620   3.147   4.438   3.268 -0.4860 -0.5770 -0.1195
   20DA3     C5  621   3.270   4.404   3.209  0.0397  0.0396  0.4413
   20DA3     C6  622   3.363   4.459   3.116 -0.1227 -0.0195 -0.2154
   20DA3     N6  623   3.345   4.570   3.049 -0.2632 -0.5983  0.2056
   20DA3    H61  624   3.405   4.589   2.970 -0.8355  0.4512  0.0074
   20DA3    H62  625   3.254   4.612   3.056 -0.4250 -1.1648  1.8041
   20DA3     N1  626   3.478   4.398   3.080 -0.1528 -0.4278  1.3885
   20DA3     C2  627   3.507   4.290   3.149  0.4353  0.1914  0.1389
   20DA3     H2  628   3.601   4.245   3.121  0.7257  1.5859 -1.2519
   20DA3     N3  629   3.430   4.219   3.233  0.6355  0.3080 -0.0370
   20DA3     C4  630   3.314   4.283   3.256  0.0115  0.5900 -0.7773
   20DA3    C3'  631   3.216   4.024   3.644  0.2101  0.6784  0.7127
   20DA3    H3'  632   3.140   3.993   3.716  0.1221 -0.9653 -0.0528
   20DA3    C2'  633   3.199   4.167   3.590 -0.6138 -0.0195  0.3722
   20DA3    H2'  634   3.095   4.199   3.599 -0.6308 -0.2437  1.0345
   20DA3   H2''  635   3.259   4.244   3.638  0.0114 -0.1906 -0.1260
   20DA3    O3'  636   3.346   4.008   3.703  0.2309 -0.3088  0.1828
   20DA3   HO3'  637   3.358   3.920   3.737 -1.3589  0.5304  3.2455
   21NA+    NA+  638   3.622   4.881   1.175  0.0033  0.0248 -0.1560
   22NA+    NA+  639   4.184   5.769   0.550 -0.0803 -0.5796 -0.2103
   23NA+    NA+  640   1.409   6.412   0.947  0.2627 -0.3723  0.4150
   24NA+    NA+  641   5.108   0.669   3.648 -0.0450 -0.1895 -0.2696
   25NA+    NA+  642   0.225   4.920   3.067  0.0294 -0.1265  0.3744
   26NA+    NA+  643   4.981   6.514   1.663 -0.2096 -0.0280  0.2735
   27NA+    NA+  644   0.184   3.123   2.923  0.2722 -0.2162 -0.1861
   28NA+    NA+  645   2.400   3.649   3.566  0.3033  0.0896  0.5694
   29NA+    NA+  646   4.444   6.645   1.149 -0.3082 -0.0879 -0.2044
   30NA+    NA+  647   2.393   4.955   3.003 -0.4100 -0.1320  0.2950
   31NA+    NA+  648   4.607   3.974   4.013  0.7523  0.4593  0.5973
   32NA+    NA+  649   2.304   2.304   4.233 -0.3493 -0.0502  0.1638
   33NA+    NA+  650   2.746   3.807   0.982 -0.3105 -0.1945 -0.0810
   34NA+    NA+  651   2.637   2.847   5.682 -0.6964  0.3064 -0.1215
   35NA+    NA+  652   1.811   4.932   5.600  0.3073 -0.0794  0.4605
   36NA+    NA+  653   7.576   5.513   4.550  0.3315 -0.1037 -0.1179
   37NA+    NA+  654   4.071   5.198   3.533  0.2557  0.2300 -0.4917
   38NA+    NA+  655   4.811   1.066   5.169 -0.5388  0.2957 -0.6052
   39NA+    NA+  656   5.942   6.946   5.035 -0.3382 -0.1421  0.1712
   40NA+    NA+  657   7.117   4.939   2.104  0.2208  0.3219 -0.4085
   41NA+    NA+  658   5.017   4.896   4.025 -0.5273  0.7888 -0.6068
   42NA+    NA+  659   6.987   1.460   1.605  0.6627 -0.3465  0.3358
   43NA+    NA+  660   5.272   3.355   4.675  0.0823  0.0182 -0.2369
   44NA+    NA+  661   1.423   3.922   0.847 -0.2657 -0.3172 -0.1616
   45NA+    NA+  662   0.446   6.071   5.348  0.0394  0.5620 -0.3553
   46NA+    NA+  663   2.506   6.768   3.531  0.3951  0.0916 -0.0182
   47NA+    NA+  664   0.433   2.571   1.077 -0.1221  0.4199 -0.0854
   48NA+    NA+  665   0.256   6.549   5.970  0.3260  0.4004 -0.1771
   49NA+    NA+  666   5.590   3.216   1.843  0.2715 -0.3122  0.0691
   50NA+    NA+  667   1.445   4.529   4.570  0.5784  0.1024 -0.2132
   51NA+    NA+  668   4.945   3.078   1.987 -0.1083  0.3207 -0.2702
   52NA+    NA+  669   2.043   2.740   1.710  0.1160  0.5189  0.0657
   53NA+    NA+  670   6.938   6.627   0.063  0.0274  0.5700 -0.4661
   54NA+    NA+  671   2.602   2.809   0.334  0.0937  0.2130  0.1432
   55NA+    NA+  672   1.792   0.684   5.867  0.3173  0.5179 -0.1777
   56NA+    NA+  673   7.501   3.802   5.657  0.0324  0.4041  0.2132
   57NA+    NA+  674   7.010   1.879   4.144 -0.1831 -0.1433  0.5535
   58NA+    NA+  675   1.553   1.889   2.975  0.2832  0.2129  0.0155
   59NA+    NA+  676   3.738   3.511   3.220  0.0476  0.3601  0.1364
   60NA+    NA+  677   2.338   4.475   4.185 -0.3441  0.0118  0.3054
   61NA+    NA+  678   2.032   2.870   5.666  0.2393 -0.2385  0.1518
   62NA+    NA+  679   2.432   2.860   2.279  0.4351 -0.1088 -0.0012
   63NA+    NA+  680   2.805   3.553   3.719 -0.0296  0.2523  0.1899
   64NA+    NA+  681   5.389   0.625   2.496 -0.6651 -0.5502 -0.0819
   65NA+    NA+  682   3.682   2.734   2.588  0.3517  0.3440 -0.1521
   66NA+    NA+  683   1.383   0.956   5.209 -0.1166 -0.2509 -0.3227
   67NA+    NA+  684   2.027   2.643   0.759 -0.4400  0.3597 -0.3127
   68NA+    NA+  685   4.777   2.054   0.510  0.1942  0.2921  0.0882
   69NA+    NA+  686   2.445   5.061   4.614  0.1724  0.2651 -0.0776
   70NA+    NA+  687   0.218   6.028   2.945  0.0009 -0.2742  0.0708
   71NA+    NA+  688   2.844   0.700   0.896  0.1880  0.5530 -0.0409
   72NA+    NA+  689   2.242   1.135   2.733 -0.3296 -0.0473 -0.5150
   73NA+    NA+  690   5.468   2.188   1.110  0.2145  0.0860 -0.0843
   74CL-    CL-  691   0.005   2.116   3.642  0.3116  0.1195  0.1434
   75CL-    CL-  692   1.216   1.444   1.488  0.1049 -0.2469  0.2561
   76CL-    CL-  693   6.915   2.933   2.745 -0.1560 -0.3465  0.0358
   77CL-    CL-  694   0.865   6.317   0.553  0.0992 -0.1042  0.1447
   78CL-    CL-  695   6.935   4.276   1.120 -0.2005  0.0591 -0.1859
   79CL-    CL-  696   1.192   2.489   3.131  0.4919  0.5215 -0.0328
   80CL-    CL-  697   4.257   6.457   4.849 -0.1865  0.2861 -0.6116
   81CL-    CL-  698   7.540   6.661   1.116 -0.5844  0.1686 -0.1588
   82CL-    CL-  699   2.058   5.368   1.554  0.3918  0.1267 -0.1517
   83CL-    CL-  700   0.243   3.296   5.522  0.4156 -0.2878  0.2358
   84CL-    CL-  701   1.543   0.159   0.819 -0.3445  0.2545  0.2345
   85CL-    CL-  702   7.037   7.197   4.493  0.3507  0.1575 -0.1946
   86CL-    CL-  703   1.657   5.379   5.360  0.0577 -0.4458  0.5780
   87CL-    CL-  704   2.060   4.345   5.823 -0.1765  0.1812  0.2640
   88CL-    CL-  705   1.233   2.186   3.788 -0.4591  0.1737 -0.2262
   89CL-    CL-  706   7.250   1.395   5.484  0.3064 -0.2981 -0.0406
   90CL-    CL-  707   3.173   5.374   6.108 -0.0013  0.1540 -0.4125
   91CL-    CL-  708   3.665   0.610   4.761  0.3611  0.1473 -0.1002
   92CL-    CL-  709   4.390   6.877   0.112 -0.1790 -0.1131 -0.1549
   93CL-    CL-  710   7.489   5.117   4.196  0.4048 -0.3213 -0.1266
   94CL-    CL-  711   1.792   1.460   3.368  0.0411  0.3868  0.1091
   95CL-    CL-  712   2.706   5.824   5.753 -0.1019 -0.5191  0.2786
   96CL-    CL-  713   3.010   5.610   0.961 -0.2239  0.4338  0.0516
   97CL-    CL-  714   7.318   1.645   0.438 -0.3331 -0.1273  0.1014
   98CL-    CL-  715   4.349   3.657   3.484 -0.1511 -0.3931 -0.1364
   99CL-    CL-  716   3.851   2.368   3.771  0.3209  0.2160  0.2502
  100CL-    CL-  717   7.176   4.519   1.720  0.0390 -0.1276 -0.2294
  101CL-    CL-  718   4.704   3.012   4.748  0.0017  0.0551 -0.1168
  102CL-    CL-  719   1.897   7.030   0.822 -0.1873  0.1129 -0.4339
  103CL-    CL-  720   2.191   7.147   3.598 -0.0077  0.0381 -0.4820
  104CL-    CL-  721   0.239   0.792   1.205  0.3942  0.2809  0.4428
  105CL-    CL-  722   1.285   4.162   3.001 -0.3072 -0.2908  0.3272
  106CL-    CL-  723   1.395   2.921   5.547  0.0727 -0.1476 -0.3055
  107CL-    CL-  724   5.502   4.413   2.863 -0.0126 -0.4567 -0.0064
  108WAT      O  725   4.544   1.425   3.466 -0.0739  0.1948 -0.2299
  108WAT     H1  726   4.459   1.458   3.497  0.2516  1.7791 -0.9106
  108WAT     H2  727   4.604   1.442   3.538 -0.1444 -0.0711 -0.1060
  109WAT      O  728   3.921   6.301   1.331 -0.0411 -0.3111 -0.2754
  109WAT     H1  729   3.868   6.361   1.384  0.1795  0.2957 -0.7305
  109WAT     H2  730   3.944   6.230   1.390  1.9464  1.3576  1.0657
  110WAT      O  731   4.178   5.637   2.997 -0.0282 -0.6680  0.5075
  110WAT     H1  732   4.144   5.549   2.980 -0.4462 -0.6811  1.3667
  110WAT     H2  733   4.192   5.639   3.091 -3.5380  1.3797  1.1484
  111WAT      O  734   6.433   2.637   3.261 -0.0420 -0.0711 -0.2217
  111WAT     H1  735   6.389   2.606   3.182  0.5021  0.4736 -0.7419
  111WAT     H2  736   6.524   2.612   3.249 -0.0192 -0.3236  0.4142
  112WAT      O  737   1.072   0.669   3.526  0.4713  0.1895  0.1532
  112WAT     H1  738   1.138   0.727   3.489 -1.6057  1.8136 -1.2597
  112WAT     H2  739   1.043   0.712   3.607 -0.3359  0.6427 -0.3575
  113WAT      O  740   0.175   5.920   1.536  0.1206 -0.5353  0.8321
  113WAT     H1  741   0.131   5.902   1.453  2.1229 -2.7527  0.1468
  113WAT     H2  742   0.156   5.844   1.591  1.0418 -0.3764  1.3932
  114WAT      O  743   1.844   4.153   0.427 -0.1546 -0.1148  0.4142
  114WAT     H1  744   1.851   4.131   0.520 -0.7831  0.5113  0.6194
  114WAT     H2  745   1.883   4.079   0.382  0.6437 -0.1914  1.2000
  115WAT      O  746   7.343   1.386   1.256 -0.5040  0.2421  0.2463
  115WAT     H1  747   7.305   1.310   1.301 -0.9169  0.2585 -0.0707
  115WAT     H2  748   7.428   1.398   1.298 -0.7536  0.0631  0.8142
  116WAT      O  749   4.929   4.867   2.849  0.0715 -0.1453 -0.6615
  116WAT     H1  750   4.932   4.846   2.942 -0.8147 -1.6269 -0.9335
  116WAT     H2  751   5.021   4.869   2.822  0.2925 -1.0120 -0.0211
  117WAT      O  752   0.206   1.851   0.430  0.3624 -0.1403  0.9418
  117WAT     H1  753   0.189   1.759   0.453 -0.9867 -0.0960  0.2206
  117WAT     H2  754   0.295   1.850   0.395  0.0601 -1.3470  0.1408
  118WAT      O  755   3.863   2.221   6.068 -0.2115  0.1263 -0.3463
  118WAT     H1  756   3.953   2.245   6.044 -0.0649  0.2581  0.3213
  118WAT     H2  757   3.864   2.216   6.163 -0.7666 -0.4688 -0.3648
  119WAT      O  758   0.882   5.796   4.600  0.5798 -0.0189 -0.1228
  119WAT     H1  759   0.888   5.712   4.555 -0.9723 -0.1991 -0.0442
  119WAT     H2  760   0.829   5.777   4.678  0.9879  0.8428  0.3782
  120WAT      O  761   1.078   1.354   4.043  0.1317 -0.5084 -0.0211
  120WAT     H1  762   1.119   1.439   4.059  0.8124 -0.6486 -0.9293
  120WAT     H2  763   1.092   1.305   4.124  1.0845 -0.2733 -0.0306
  121WAT      O  764   5.745   1.460   2.805 -0.4657 -0.4155  0.1493
  121WAT     H1  765   5.754   1.467   2.900 -0.8080  0.7712  0.1131
  121WAT     H2  766   5.655   1.487   2.788 -0.6396 -1.3462 -0.4544
  122WAT      O  767   6.877   4.868   0.754 -0.2435 -0.2230 -0.2502
  122WAT     H1  768   6.912   4.839   0.838 -0.6993  0.3884  0.1651
  122WAT     H2  769   6.947   4.921   0.716 -0.3723  0.2505  0.1629
  123WAT      O  770   2.578   5.008   1.508 -0.2275 -0.4406  0.3824
  123WAT     H1  771   2.657   4.955   1.505  1.2675  1.6383  0.3884
  123WAT     H2  772   2.549   5.004   1.599  1.3718  0.7453  0.9920
  124WAT      O  773   6.327   0.608   0.856  0.6491  0.7877  0.1393
  124WAT     H1  774   6.278   0.529   0.835 -1.1562  1.7417  0.5135
  124WAT     H2  775   6.300   0.630   0.945 -0.2473  2.7459 -0.5631
  125WAT      O  776   3.388   6.786   2.439  0.4250 -0.3053  0.7586
  125WAT     H1  777   3.399   6.738   2.521 -1.2651 -0.4857  0.9257
  125WAT     H2  778   3.460   6.848   2.437  0.3599 -0.1195  2.5197
  126WAT      O  779   3.005   6.923   1.133 -0.4519  0.5087  0.6016
  126WAT     H1  780   3.009   6.828   1.147 -1.2919  0.5842  1.5240
  126WAT     H2  781   2.918   6.948   1.164  0.4370  1.8513  2.2097
  127WAT      O  782   3.042   7.139   3.678  0.3816  0.1709 -0.3649
  127WAT     H1  783   3.058   7.233   3.689 -2.8063  0.7637  0.1766
  127WAT     H2  784   3.017   7.108   3.765  2.9033 -1.6169 -0.1851
  128WAT      O  785   6.945   4.663   2.984  0.6380  0.5923 -0.4024
  128WAT     H1  786   7.028   4.617   2.972 -0.5551 -1.6503 -0.5946
  128WAT     H2  787   6.934   4.670   3.079  1.0698  0.9950 -0.3776
  129WAT      O  788   6.053   1.937   4.074 -0.1253 -0.5157 -0.4227
  129WAT     H1  789   6.113   1.943   4.148  0.2153  0.6247 -0.7583
  129WAT     H2  790   6.079   1.858   4.027  0.7660 -0.3361 -0.2516
  130WAT      O  791   1.273   4.996   2.572 -0.5459  0.5745 -0.1810
  130WAT     H1  792   1.205   5.059   2.594 -0.0186  0.7996  0.8961
  130WAT     H2  793   1.285   5.005   2.478 -1.7243  0.8044 -0.3277
  131WAT      O  794   1.936   0.244   3.713  0.7028 -0.3411  0.2665
  131WAT     H1  795   1.841   0.235   3.719  0.6142  1.0196  1.3914
  131WAT     H2  796   1.968   0.223   3.801  1.1768  1.6383  0.6290
  132WAT      O  797   1.544   1.895   4.394 -0.2113 -0.1588  0.0956
  132WAT     H1  798   1.520   1.851   4.476  2.7426 -0.2288  1.0754
  132WAT     H2  799   1.558   1.986   4.420  1.1525 -0.2623 -0.1906
  133WAT      O  800   5.533   6.366   0.818 -0.1489  0.0146  0.7776
  133WAT     H1  801   5.594   6.372   0.891  1.9854 -0.0824 -0.8808
  133WAT     H2  802   5.447   6.351   0.858  0.8710  0.3631  3.2249
  134WAT      O  803   1.200   4.039   5.927  0.0141  0.5052  0.3387
  134WAT     H1  804   1.146   4.055   5.850 -0.7665 -0.2189  0.7203
  134WAT     H2  805   1.288   4.065   5.900  0.1474 -1.5256 -1.4837
  135WAT      O  806   2.437   6.004   5.434  0.0487 -0.1149  0.0048
  135WAT     H1  807   2.370   5.954   5.480  1.0150 -1.1790  0.3068
  135WAT     H2  808   2.520   5.970   5.469  0.7631  0.4747 -1.0667
  136WAT      O  809   7.242   2.004   0.045  0.2251  0.3480  0.0034
  136WAT     H1  810   7.331   2.005   0.009  0.0391 -0.9923 -0.5360
  136WAT     H2  811   7.254   2.002   0.140  0.8003 -0.6142 -0.0755
  137WAT      O  812   7.034   6.425   0.162 -0.4674  0.1890  0.0222
  137WAT     H1  813   7.075   6.414   0.248 -0.3714  0.5221  0.0169
  137WAT     H2  814   7.107   6.442   0.102 -0.4056 -1.1754 -0.3298
  138WAT      O  815   6.236   0.659   5.199  0.0194  0.0383 -0.7953
  138WAT     H1  816   6.227   0.684   5.291 -0.5081 -1.4937 -0.3924
  138WAT     H2  817   6.188   0.725   5.151 -1.5213 -0.2752  0.2248
  139WAT      O  818   5.743   4.530   3.057 -0.3742 -0.0311 -0.2479
  139WAT     H1  819   5.656   4.501   3.030 -0.3305  1.4826 -2.3050
  139WAT     H2  820   5.729   4.580   3.137 -0.8940 -2.5125  1.3000
  140WAT      O  821   2.878   0.196   3.496 -0.0102 -0.6396 -0.5386
  140WAT     H1  822   2.818   0.256   3.540 -1.0114 -1.9562 -0.0330
  140WAT     H2  823   2.965   0.221   3.529 -0.4570  0.1488  0.0959
  141WAT      O  824   6.836   3.409   1.401 -0.0623  0.3315  0.0859
  141WAT     H1  825   6.883   3.347   1.457  1.0388  1.3238  0.3025
  141WAT     H2  826   6.900   3.478   1.383  0.2362 -0.6991 -3.7541
  142WAT      O  827   4.191   5.932   2.638 -0.5280  0.2735 -0.2899
  142WAT     H1  828   4.271   5.956   2.685 -0.0648 -1.0677 -0.3408
  142WAT     H2  829   4.133   5.898   2.706  0.1670 -1.7300 -0.6368
  143WAT      O  830   7.026   1.261   1.794  0.8293  0.0191  0.2067
  143WAT     H1  831   6.950   1.268   1.852 -0.1201  1.5619 -1.1693
  143WAT     H2  832   7.091   1.214   1.847 -0.4046  0.2999  2.0830
  144WAT      O  833   5.729   2.962   1.080  0.0229  0.3542  0.3603
  144WAT     H1  834   5.735   2.869   1.058 -0.9601  0.6693 -1.4742
  144WAT     H2  835   5.800   2.977   1.142  3.0112 -0.7627 -2.5199
  145WAT      O  836   5.496   2.631   0.392  0.3099  0.2208 -0.0826
  145WAT     H1  837   5.526   2.648   0.481  1.3868  2.7607 -0.8470
  145WAT     H2  838   5.554   2.682   0.336 -0.1243 -1.5364 -2.3148
  146WAT      O  839   6.121   6.059   1.540  0.5071 -0.8502 -0.6306
  146WAT     H1  840   6.080   6.083   1.622  1.3512  0.3733 -0.5378
  146WAT     H2  841   6.173   5.981   1.560  0.2611 -0.8882 -0.1498
  147WAT      O  842   3.414   1.645   2.397  0.1879 -0.4701 -0.4495
  147WAT     H1  843   3.342   1.641   2.333 -0.9584 -0.2523  0.7854
  147WAT     H2  844   3.371   1.668   2.479  1.7508  0.1164  0.2322
  148WAT      O  845   2.581   5.056   4.805  0.3153  0.0691  0.0269
  148WAT     H1  846   2.671   5.025   4.802  0.3181  0.0726  0.0690
  148WAT     H2  847   2.539   5.003   4.872  0.3457  0.2202  0.1680
  149WAT      O  848   6.721   0.822   5.087 -0.2241  0.5678  0.4462
  149WAT     H1  849   6.688   0.909   5.067  0.6964  0.8535  0.0931
  149WAT     H2  850   6.644   0.766   5.089 -0.7187  1.2008 -0.3842
  150WAT      O  851   5.980   0.101   1.004  0.2070  0.0933 -0.3188
  150WAT     H1  852   5.945   0.149   1.080  1.2289  0.4622 -0.0651
  150WAT     H2  853   5.919   0.027   0.993  0.3934 -0.3398  1.2721
  151WAT      O  854   3.227   5.081   6.201 -0.7165  0.4794  0.2025
  151WAT     H1  855   3.208   5.066   6.294  1.6071  0.2906  0.6923
  151WAT     H2  856   3.216   5.176   6.190 -1.0498  0.4978  0.6326
  152WAT      O  857   5.450   1.710   1.332 -0.3723  0.5426 -0.4233
  152WAT     H1  858   5.486   1.722   1.244  0.6130 -3.0936 -0.6641
  152WAT     H2  859   5.508   1.761   1.389  1.2665 -0.0356 -1.5180
  153WAT      O  860   3.936   5.591   1.217 -0.4263 -0.1658 -0.4766
  153WAT     H1  861   3.964   5.679   1.242  0.3316 -0.0468 -1.6470
  153WAT     H2  862   3.887   5.558   1.293 -2.4167  1.9715 -0.7398
  154WAT      O  863   1.710   0.939   5.492 -0.3733 -0.5744  0.1193
  154WAT     H1  864   1.785   0.888   5.522 -1.3689 -1.2795  1.5363
  154WAT     H2  865   1.665   0.964   5.572 -1.1126  0.6880 -0.6662
  155WAT      O  866   6.897   6.980   4.925 -0.0143  0.2815 -0.4340
  155WAT     H1  867   6.978   7.024   4.899 -0.3966 -0.3277 -2.9036
  155WAT     H2  868   6.829   7.021   4.871 -0.8082 -1.4041 -0.7756
  156WAT      O  869   6.136   6.358   6.138 -0.5711 -0.4546  0.2763
  156WAT     H1  870   6.166   6.337   6.227 -0.0405  0.8968  0.4366
  156WAT     H2  871   6.122   6.453   6.140 -0.8869 -0.4690 -0.9914
  157WAT      O  872   4.251   5.571   3.243  0.4175 -0.3970 -0.2529
  157WAT     H1  873   4.264   5.650   3.295 -1.4375 -0.7282  0.7979
  157WAT     H2  874   4.328   5.516   3.262  0.4135  0.0455  1.0925
  158WAT      O  875   4.366   5.692   4.021 -0.1593  0.1169 -0.5018
  158WAT     H1  876   4.332   5.701   3.932  1.3434 -0.0776 -1.1301
  158WAT     H2  877   4.454   5.731   4.017 -0.3544  0.7750  1.0852
  159WAT      O  878   5.534   6.508   0.273  0.1755  0.1706 -0.0112
  159WAT     H1  879   5.501   6.512   0.363 -1.2357  1.5710 -0.5421
  159WAT     H2  880   5.456   6.513   0.218  0.8395 -2.5149 -1.3716
  160WAT      O  881   5.493   4.721   6.096  0.3466  0.2508 -0.6618
  160WAT     H1  882   5.512   4.804   6.140  0.1958 -0.6065  1.1431
  160WAT     H2  883   5.506   4.739   6.003  1.7999  1.8860 -0.2015
  161WAT      O  884   2.642   1.906   3.159 -0.1914 -0.1582  0.4198
  161WAT     H1  885   2.707   1.852   3.115 -1.0720 -0.5844 -0.3872
  161WAT     H2  886   2.677   1.995   3.154  0.4934 -0.4234  0.3253
  162WAT      O  887   4.266   0.116   3.638 -0.4622  0.3381 -0.2117
  162WAT     H1  888   4.176   0.146   3.624 -0.2984  1.0208  0.1256
  162WAT     H2  889   4.264   0.073   3.723 -0.4810  0.3107 -0.2261
  163WAT      O  890   6.301   2.363   1.399  0.9686 -0.1352  0.0310
  163WAT     H1  891   6.388   2.385   1.365  0.7219  0.4616 -0.2239
  163WAT     H2  892   6.315   2.282   1.447  2.2573  1.4265  2.5038
  164WAT      O  893   4.933   1.705   5.742 -0.3360 -0.5963  0.5776
  164WAT     H1  894   4.892   1.790   5.758  2.1523  0.5878  1.0723
  164WAT     H2  895   4.991   1.692   5.817  1.8731 -1.1124 -1.1348
  165WAT      O  896   4.562   0.475   0.602 -0.3748 -0.2399  0.1142
  165WAT     H1  897   4.579   0.383   0.622 -0.8817 -0.2711  0.4152
  165WAT     H2  898   4.586   0.522   0.682  0.2388 -0.0685 -0.1673
  166WAT      O  899   7.144   0.568   1.346 -0.2554  0.3253  0.3412
  166WAT     H1  900   7.106   0.514   1.415  0.9006 -2.0005 -0.7344
  166WAT     H2  901   7.082   0.561   1.273  1.3378 -2.2231 -0.8807
  167WAT      O  902   6.190   4.759   4.053 -0.1958 -0.1664 -0.3851
  167WAT     H1  903   6.213   4.803   4.135 -0.2850 -1.4102  0.3408
  167WAT     H2  904   6.263   4.700   4.036 -1.2385 -1.6671  0.1170
  168WAT      O  905   4.460   5.749   3.496  0.2296  0.6597 -0.3751
  168WAT     H1  906   4.384   5.789   3.455  1.6769  2.9061 -1.0941
  168WAT     H2  907   4.502   5.698   3.427 -0.5619 -0.5745  0.0201
  169WAT      O  908   5.297   4.810   0.906  0.5265 -0.4563 -0.0502
  169WAT     H1  909   5.317   4.740   0.844  0.4556 -0.8038  0.3106
  169WAT     H2  910   5.306   4.768   0.992  1.5332  0.2494  0.2057
  170WAT      O  911   5.573   6.854   3.285  0.3471 -0.5252  0.4790
  170WAT     H1  912   5.667   6.835   3.285  0.3954 -0.3319  1.3629
  170WAT     H2  913   5.558   6.898   3.369 -0.4101  0.0647  0.0437
  171WAT      O  914   3.109   2.070   5.909 -0.0640  0.2255 -0.3401
  171WAT     H1  915   3.078   2.091   5.997 -1.1319 -1.7603 -0.1946
  171WAT     H2  916   3.182   2.009   5.924 -1.2141 -1.3260 -0.8026
  172WAT      O  917   7.498   2.985   0.626 -0.2918 -0.4909  0.1641
  172WAT     H1  918   7.488   2.892   0.647 -1.5281 -0.5857 -0.6871
  172WAT     H2  919   7.518   2.986   0.532  1.6041  0.0438  0.5387
  173WAT      O  920   4.869   1.992   3.257  0.2788 -0.5058  0.1438
  173WAT     H1  921   4.876   2.039   3.174  0.4892  0.3171  0.6152
  173WAT     H2  922   4.936   2.031   3.313 -2.0393  1.4202  1.8356
  174WAT      O  923   2.547   0.760   5.775  0.1482 -0.6940  0.1680
  174WAT     H1  924   2.568   0.842   5.819 -1.5739 -0.0212 -0.1772
  174WAT     H2  925   2.620   0.702   5.795  1.1321  0.7465  0.8773
  175WAT      O  926   3.381   2.869   3.939  0.1278 -0.3226 -0.4524
  175WAT     H1  927   3.301   2.821   3.962 -0.0209  0.2517  0.2852
  175WAT     H2  928   3.364   2.959   3.970  1.2600 -0.3140  0.1881
  176WAT      O  929   1.484   6.851   3.560  0.2991  0.2652 -0.0060
  176WAT     H1  930   1.529   6.771   3.534 -0.8826 -0.9289  1.4397
  176WAT     H2  931   1.397   6.822   3.587 -0.9536  2.3463 -1.5643
  177WAT      O  932   4.785   2.673   4.074  0.2162 -0.1259  0.5403
  177WAT     H1  933   4.719   2.698   4.138 -0.4575  0.3745 -0.3229
  177WAT     H2  934   4.735   2.637   4.001  1.0397 -1.7519  0.7372
  178WAT      O  935   4.207   3.105   0.224  0.1070 -0.4968 -0.3037
  178WAT     H1  936   4.229   3.146   0.308  0.1203 -1.8678  0.4099
  178WAT     H2  937   4.233   3.013   0.236 -1.2187 -1.0280 -1.2961
  179WAT      O  938   4.410   7.071   0.548 -0.2165 -0.0629  0.4185
  179WAT     H1  939   4.380   7.095   0.636  1.9298 -0.6547  1.3717
  179WAT     H2  940   4.348   7.004   0.520 -0.2705 -0.7152  1.9785
  180WAT      O  941   2.872   6.095   2.352  0.1846 -0.3366  0.1193
  180WAT     H1  942   2.907   6.116   2.265 -0.2274 -0.9485 -0.1969
  180WAT     H2  943   2.778   6.111   2.345  0.3843  1.5947  1.0588
  181WAT      O  944   5.376   1.427   4.063 -0.3472  0.0616  1.3483
  181WAT     H1  945   5.449   1.455   4.120  2.5751 -0.6962 -1.7123
  181WAT     H2  946   5.411   1.353   4.015 -1.9905  1.5604 -2.5353
  182WAT      O  947   7.567   2.045   5.619 -0.7805  0.4395  0.2399
  182WAT     H1  948   7.509   2.044   5.696  0.7831  2.8952  1.5493
  182WAT     H2  949   7.629   1.975   5.636 -1.2134  0.1269  0.5837
  183WAT      O  950   2.529   3.624   4.115  0.5554  0.5452 -0.5333
  183WAT     H1  951   2.457   3.563   4.098  2.3449 -1.5395 -1.1043
  183WAT     H2  952   2.539   3.671   4.032  1.0595 -0.5410 -1.1144
  184WAT      O  953   4.682   4.838   5.703 -0.6170 -0.2041 -0.6455
  184WAT     H1  954   4.650   4.773   5.766  1.0380  0.6795  1.2242
  184WAT     H2  955   4.655   4.922   5.740 -1.1022  0.2998 -2.0665
  185WAT      O  956   7.095   5.052   0.361  0.3938  0.2754 -0.5252
  185WAT     H1  957   7.105   5.031   0.454  0.0307 -0.0831 -0.5671
  185WAT     H2  958   7.003   5.075   0.351  0.2998 -0.2449 -0.9086
  186WAT      O  959   5.784   1.610   6.108  0.0449  0.6451 -0.1685
  186WAT     H1  960   5.851   1.609   6.177  0.5744 -0.1105 -0.6752
  186WAT     H2  961   5.703   1.633   6.153  0.4480  0.4902  0.6474
  187WAT      O  962   6.027   3.948   3.298  0.1100  0.3849 -0.5664
  187WAT     H1  963   6.108   3.938   3.248  0.7186 -1.9653  0.7148
  187WAT     H2  964   5.959   3.910   3.241  0.2273  0.7075 -0.9213
  188WAT      O  965   2.275   1.408   1.997 -0.1669  0.1014 -0.0030
  188WAT     H1  966   2.208   1.446   1.941 -0.4026  0.2534  0.3731
  188WAT     H2  967   2.230   1.393   2.081 -0.1697 -1.3214 -0.2408
  189WAT      O  968   7.318   1.198   0.086 -0.2791 -0.3036 -0.3833
  189WAT     H1  969   7.363   1.270   0.129  0.7653 -1.9286  1.3671
  189WAT     H2  970   7.368   1.184   0.005  1.4270 -1.0197  0.7491
  190WAT      O  971   0.217   4.359   3.893 -1.1129  0.6240  0.6818
  190WAT     H1  972   0.169   4.279   3.873  1.9140 -0.6664 -2.3771
  190WAT     H2  973   0.253   4.345   3.980 -1.7616 -0.7091  0.7569
  191WAT      O  974   4.534   2.082   3.571  0.1788 -0.1448  0.2493
  191WAT     H1  975   4.489   2.099   3.487  1.8832  0.1037 -0.6587
  191WAT     H2  976   4.486   2.135   3.634 -0.0596  1.1126 -0.9211
  192WAT      O  977   2.318   4.896   3.231  0.6208  0.5180 -0.3112
  192WAT     H1  978   2.391   4.860   3.281  0.4505  0.1729 -0.3106
  192WAT     H2  979   2.295   4.976   3.278  0.4989  0.2263  0.1377
  193WAT      O  980   3.836   5.992   2.386 -0.7014  0.5508 -0.0474
  193WAT     H1  981   3.859   6.069   2.437 -0.6361  0.8326 -0.4986
  193WAT     H2  982   3.768   5.949   2.437 -0.8869  1.0205  0.1056
  194WAT      O  983   3.968   4.833   1.536 -0.2978  0.4675 -0.0550
  194WAT     H1  984   4.061   4.811   1.543 -0.5702 -0.3739  1.4815
  194WAT     H2  985   3.931   4.764   1.481 -0.3978 -0.5777  1.2719
  195WAT      O  986   3.929   0.380   0.037 -0.3081 -0.2378 -0.3881
  195WAT     H1  987   3.915   0.330  -0.044 -0.2475 -1.2037  0.1833
  195WAT     H2  988   3.860   0.349   0.096  0.2587 -0.2696  0.2618
  196WAT      O  989   6.919   5.516   1.313  0.1172 -0.3377 -0.1568
  196WAT     H1  990   6.838   5.508   1.263 -0.1271  0.4958  0.0987
  196WAT     H2  991   6.964   5.591   1.275 -0.3821  0.7312  1.2799
  197WAT      O  992   0.419   6.658   3.592  0.2143  0.5809 -0.5908
  197WAT     H1  993   0.333   6.621   3.571  0.4516  0.0974 -0.7278
  197WAT     H2  994   0.449   6.607   3.668 -0.8092  2.5714  1.2698
  198WAT      O  995   3.509   5.457   1.201 -0.1786  0.0870  0.1065
  198WAT     H1  996   3.459   5.402   1.141  0.4602  0.7818 -1.1004
  198WAT     H2  997   3.449   5.526   1.227  0.0872  0.9075 -1.3205
  199WAT      O  998   0.742   6.239   1.397  0.4270  0.2068 -0.0883
  199WAT     H1  999   0.827   6.282   1.399  0.7117 -0.2784 -0.9114
  199WAT     H2 1000   0.713   6.236   1.488  2.0731 -1.1598  0.4345
  200WAT      O 1001   2.991   1.370   1.082  0.1236  0.2452 -0.2426
  200WAT     H1 1002   2.910   1.337   1.042 -0.6957  1.0733  0.6630
  200WAT     H2 1003   3.053   1.377   1.009 -0.1598 -1.7370 -0.7218
  201WAT      O 1004   0.730   2.495   6.033  0.1946 -0.2537 -0.1462
  201WAT     H1 1005   0.735   2.452   6.118  0.7331  0.7759  0.3653
  201WAT     H2 1006   0.680   2.576   6.050  0.0495 -0.1799 -0.8712
  202WAT      O 1007   7.503   2.087   2.920 -0.0346 -0.1649 -0.0473
  202WAT     H1 1008   7.572   2.084   2.987  0.8900 -0.6544 -0.9919
  202WAT     H2 1009   7.425   2.054   2.965  0.4800 -0.1491  0.8907
  203WAT      O 1010   2.337   5.879   0.441 -0.0423 -0.1881  0.2279
  203WAT     H1 1011   2.375   5.941   0.503 -0.6861  0.0361  0.4148
  203WAT     H2 1012   2.246   5.908   0.431 -0.6007 -1.5716  0.9527
  204WAT      O 1013   2.229   3.020   3.608  0.0506 -0.5644  0.0953
  204WAT     H1 1014   2.290   2.946   3.599  1.0004  0.3057 -0.9060
  204WAT     H2 1015   2.233   3.065   3.524 -0.2360  0.8425  0.8036
  205WAT      O 1016   7.640   6.771   1.549  0.4562 -0.2749 -0.5524
  205WAT     H1 1017   7.614   6.682   1.574  1.6055 -0.9688 -1.7042
  205WAT     H2 1018   7.656   6.815   1.633 -2.4883 -0.3371  0.1482
  206WAT      O 1019   7.008   2.288   0.483 -0.1016 -0.3318  0.0998
  206WAT     H1 1020   7.022   2.195   0.466 -0.5007 -0.2461 -0.7718
  206WAT     H2 1021   6.999   2.294   0.578  0.4063 -1.1117  0.2097
  207WAT      O 1022   1.928   7.011   3.019  0.2791  0.7080  0.6410
  207WAT     H1 1023   1.999   7.069   2.992  2.1868 -2.2732 -1.5042
  207WAT     H2 1024   1.969   6.950   3.080 -0.5902 -0.5896 -0.0165
  208WAT      O 1025   5.594   4.893   1.634 -0.3518  0.0463 -0.0022
  208WAT     H1 1026   5.542   4.941   1.698  0.1497  1.4749 -0.6148
  208WAT     H2 1027   5.609   4.957   1.564  1.6396 -0.5373 -0.1521
  209WAT      O 1028   6.358   6.027   4.323 -0.4644 -0.7043 -0.5864
  209WAT     H1 1029   6.421   5.974   4.372  0.7793  0.8524 -0.4002
  209WAT     H2 1030   6.283   6.035   4.382  0.2864 -0.3350  0.3513
  210WAT      O 1031   2.940   0.619   0.663  0.0034  0.4554  0.1620
  210WAT     H1 1032   3.032   0.607   0.688 -0.0000  0.1422  0.0339
  210WAT     H2 1033   2.909   0.530   0.645 -0.4975  0.4989  0.8097
  211WAT      O 1034   3.363   1.467   5.813 -0.7133 -0.3402  0.5031
  211WAT     H1 1035   3.413   1.540   5.777 -0.6099 -0.4922  0.3374
  211WAT     H2 1036   3.352   1.489   5.905 -1.7340  0.4774  0.2063
  212WAT      O 1037   1.484   4.417   6.060 -0.2985 -0.7441 -0.3854
  212WAT     H1 1038   1.558   4.474   6.081 -0.0913 -0.6734 -1.2741
  212WAT     H2 1039   1.517   4.329   6.073 -0.6535 -0.6789  1.1028
  213WAT      O 1040   3.412   4.857   2.374  0.6749  0.3565 -0.4244
  213WAT     H1 1041   3.468   4.869   2.451 -0.3280  0.1111  0.3610
  213WAT     H2 1042   3.377   4.769   2.383 -0.4398  0.7757 -0.4827
  214WAT      O 1043   7.434   7.035   4.214  0.1044 -0.7846 -0.1747
  214WAT     H1 1044   7.349   7.078   4.221  0.0168 -0.9953  0.0659
  214WAT     H2 1045   7.466   7.030   4.304  1.7668  2.0619 -0.4903
  215WAT      O 1046   0.575   5.103   3.054  0.5462  0.2301  0.4653
  215WAT     H1 1047   0.524   5.037   3.101  1.9968 -0.6061  0.9363
  215WAT     H2 1048   0.659   5.106   3.100  0.9361  1.5621 -0.2764
  216WAT      O 1049   4.843   2.879   2.655  0.0037 -1.1214 -0.4544
  216WAT     H1 1050   4.775   2.850   2.595 -2.0356  0.6494  0.8404
  216WAT     H2 1051   4.816   2.967   2.681  1.2123 -1.4645  2.3898
  217WAT      O 1052   6.749   4.619   4.655 -0.2400  0.7465  0.3839
  217WAT     H1 1053   6.680   4.605   4.590  0.3050  0.2470 -0.0891
  217WAT     H2 1054   6.701   4.644   4.734 -0.9088  1.3837 -0.2015
  218WAT      O 1055   5.823   2.992   4.696  0.1797  0.0640 -0.1495
  218WAT     H1 1056   5.796   3.009   4.786  3.8033  1.2400  0.9036
  218WAT     H2 1057   5.890   2.924   4.703  2.2936  1.8398 -1.5416
  219WAT      O 1058   5.456   0.591   4.359 -0.1351  0.3607 -0.2074
  219WAT     H1 1059   5.464   0.587   4.264 -0.0002 -0.0394 -0.1822
  219WAT     H2 1060   5.541   0.624   4.389 -0.1375  0.3759 -0.2176
  220WAT      O 1061   2.570   3.587   3.781  0.3335  0.6555  0.3648
  220WAT     H1 1062   2.519   3.515   3.818  0.8389  0.2518  0.2849
  220WAT     H2 1063   2.568   3.656   3.848  0.2507  0.3821  0.6447
  221WAT      O 1064   0.813   6.823   3.562 -0.3426 -0.3604  0.1580
  221WAT     H1 1065   0.810   6.727   3.563  0.5136 -0.3912  0.8694
  221WAT     H2 1066   0.773   6.850   3.645 -0.1735 -0.1169  0.1623
  222WAT      O 1067   6.076   6.791   5.750 -0.1507  0.1134 -0.0030
  222WAT     H1 1068   6.144   6.849   5.715 -0.3190  1.5769  1.9491
  222WAT     H2 1069   5.994   6.825   5.715 -0.0785 -0.2824 -0.5693
  223WAT      O 1070   3.523   3.658   1.014 -0.2877  0.4353  0.1791
  223WAT     H1 1071   3.460   3.637   1.083  0.3701 -0.0961  0.6363
  223WAT     H2 1072   3.608   3.663   1.059  0.0066  1.1304 -0.4224
  224WAT      O 1073   5.334   6.638   6.208 -0.5419 -0.1834  0.0569
  224WAT     H1 1074   5.411   6.587   6.184  0.8990  1.4114  1.0270
  224WAT     H2 1075   5.300   6.595   6.286 -0.4208 -0.6919 -0.1661
  225WAT      O 1076   0.838   4.709   1.372 -0.0554 -0.6729  0.2604
  225WAT     H1 1077   0.894   4.683   1.445  0.4354  4.4168  2.0835
  225WAT     H2 1078   0.899   4.731   1.301  0.3069  2.5646  1.4310
  226WAT      O 1079   2.321   5.166   0.475  0.0653  0.0572 -0.7105
  226WAT     H1 1080   2.264   5.115   0.417  0.5398  0.5618 -1.6370
  226WAT     H2 1081   2.361   5.101   0.533 -1.5433 -0.2988  0.0583
  227WAT      O 1082   3.059   1.066   2.243  0.1780 -0.4115  0.0246
  227WAT     H1 1083   3.088   1.155   2.262  2.5202 -0.9120 -0.9179
  227WAT     H2 1084   3.099   1.044   2.159 -0.1132 -2.4589  0.3640
  228WAT      O 1085   2.081   4.365   1.539  0.1059  0.1600  0.4539
  228WAT     H1 1086   2.080   4.312   1.619 -0.8507 -0.6021 -0.0417
  228WAT     H2 1087   2.058   4.304   1.470  1.4621  0.6871 -0.5061
  229WAT      O 1088   7.140   2.125   2.269  0.4080 -0.1188  0.0691
  229WAT     H1 1089   7.127   2.213   2.233  1.6702  0.4942  0.9977
  229WAT     H2 1090   7.077   2.120   2.341 -0.9085 -0.6845 -1.0855
  230WAT      O 1091   0.811   1.340   4.411 -0.1399 -0.1899 -0.0698
  230WAT     H1 1092   0.727   1.360   4.451  0.8022  0.0671  1.8971
  230WAT     H2 1093   0.845   1.426   4.384 -0.8144 -0.3691 -1.6443
  231WAT      O 1094   6.102   3.816   0.771 -0.1870 -0.4397 -0.4973
  231WAT     H1 1095   6.160   3.864   0.712 -0.6294  0.4160 -0.2620
  231WAT     H2 1096   6.121   3.724   0.754  0.7325 -0.1879 -0.9210
  232WAT      O 1097   6.234   4.459   3.804  0.0054  0.6488 -0.0287
  232WAT     H1 1098   6.311   4.515   3.814 -0.3394  1.0966  0.2039
  232WAT     H2 1099   6.262   4.373   3.833  0.4649  0.7717 -0.1042
  233WAT      O 1100   4.048   5.527   4.516 -0.1331  0.3193  0.1900
  233WAT     H1 1101   3.970   5.480   4.543 -0.6062  0.1417 -1.3515
  233WAT     H2 1102   4.099   5.463   4.466  0.2242  0.8596 -0.1583
  234WAT      O 1103   1.331   2.335   2.150  0.2682  0.0879 -0.0970
  234WAT     H1 1104   1.367   2.410   2.102 -0.5117  1.2027  0.9798
  234WAT     H2 1105   1.335   2.361   2.242 -0.9529 -0.7645  0.2304
  235WAT      O 1106   2.007   6.117   1.913 -0.1183 -0.1158 -0.4669
  235WAT     H1 1107   1.928   6.098   1.963  1.1912  0.1921  1.8598
  235WAT     H2 1108   2.073   6.055   1.946  0.9896  0.5379 -1.3543
  236WAT      O 1109   4.767   0.783   2.608 -0.5303  0.3285 -0.0897
  236WAT     H1 1110   4.820   0.717   2.653  0.0962 -0.1137 -1.4118
  236WAT     H2 1111   4.716   0.734   2.544 -1.0758  0.9871 -0.1782
  237WAT      O 1112   4.609   6.703   1.323  0.3233 -0.4406  0.2544
  237WAT     H1 1113   4.624   6.648   1.399 -1.5230 -0.1320  0.8794
  237WAT     H2 1114   4.584   6.788   1.359  1.0446  0.2101 -0.7102
  238WAT      O 1115   3.670   6.756   2.700 -0.2904 -0.5863 -0.0159
  238WAT     H1 1116   3.741   6.809   2.664 -1.5011  0.6746 -0.6769
  238WAT     H2 1117   3.644   6.803   2.780 -0.3446 -1.0733  0.2561
  239WAT      O 1118   6.693   3.794   3.844 -0.8676  0.6124  0.0462
  239WAT     H1 1119   6.634   3.733   3.887 -1.3611  0.3042 -1.0414
  239WAT     H2 1120   6.732   3.844   3.916 -0.1044 -1.2654  1.0119
  240WAT      O 1121   0.735   1.109   5.432 -0.1202 -0.3403 -0.3249
  240WAT     H1 1122   0.694   1.058   5.501  0.3592 -0.5858 -0.2128
  240WAT     H2 1123   0.829   1.103   5.450 -0.0243  0.0830 -0.6569
  241WAT      O 1124   3.580   2.233   1.436 -0.0285  0.6547  0.1534
  241WAT     H1 1125   3.583   2.142   1.466  0.2445  0.2961 -0.9521
  241WAT     H2 1126   3.661   2.273   1.470  0.7896 -0.0232 -0.9672
  242WAT      O 1127   3.846   0.806   5.014 -0.4157 -0.5219 -0.1161
  242WAT     H1 1128   3.804   0.777   4.933 -1.7452  1.1147 -0.0689
  242WAT     H2 1129   3.903   0.878   4.987  0.9427 -1.4779  0.1078
  243WAT      O 1130   7.033   3.490   1.124 -0.6161 -0.0184 -0.0840
  243WAT     H1 1131   6.996   3.562   1.175 -0.9545 -0.9466  1.0232
  243WAT     H2 1132   7.126   3.512   1.115 -1.0503  1.4728 -1.4060
  244WAT      O 1133   6.605   6.920   0.188 -0.1235 -0.0819 -0.4634
  244WAT     H1 1134   6.551   6.910   0.110 -1.5897 -0.6810  0.5724
  244WAT     H2 1135   6.568   6.857   0.251  0.1468  1.2951  1.1555
  245WAT      O 1136   3.537   0.483   2.831 -0.3523 -0.4344  0.2629
  245WAT     H1 1137   3.546   0.400   2.878 -1.7807 -0.8410 -0.1262
  245WAT     H2 1138   3.614   0.487   2.774  0.0322 -1.2019  0.7113
  246WAT      O 1139   6.840   3.987   5.431 -0.1335  0.3404  0.4715
  246WAT     H1 1140   6.879   3.997   5.517  0.2128 -1.1624  0.5105
  246WAT     H2 1141   6.745   3.982   5.448 -0.0409 -0.3423  0.8121
  247WAT      O 1142   0.610   4.396   4.979  0.2960  0.2671  0.2418
  247WAT     H1 1143   0.648   4.330   5.037  1.7167  1.0518  0.2527
  247WAT     H2 1144   0.516   4.392   4.997  0.2194 -2.2770 -0.3319
  248WAT      O 1145   4.700   5.841   3.195  0.8025 -0.4548 -0.1170
  248WAT     H1 1146   4.669   5.752   3.209  2.1051 -1.2006 -1.6210
  248WAT     H2 1147   4.714   5.876   3.283  0.0191 -1.6254  0.4944
  249WAT      O 1148   7.096   3.388   3.965 -0.4943 -0.1089 -0.3173
  249WAT     H1 1149   7.160   3.333   3.921 -0.3417  0.9571 -1.4965
  249WAT     H2 1150   7.012   3.363   3.926 -0.5241 -0.0598 -0.2856
  250WAT      O 1151   4.727   6.041   0.166  0.2875  0.1616 -0.2576
  250WAT     H1 1152   4.814   6.025   0.204 -0.2012 -1.6241  0.2187
  250WAT     H2 1153   4.681   6.092   0.232  0.2374 -0.8793  0.5417
  251WAT      O 1154   4.730   7.024   2.094 -0.1980  0.1070 -0.1117
  251WAT     H1 1155   4.821   7.054   2.097 -0.9271  3.0052 -2.2315
  251WAT     H2 1156   4.698   7.033   2.183  0.6521  2.5252  0.0068
  252WAT      O 1157   0.144   6.566   2.817  0.5121 -0.1277 -0.3078
  252WAT     H1 1158   0.141   6.647   2.868 -0.8410  0.5540 -1.4168
  252WAT     H2 1159   0.178   6.593   2.731  0.2393 -0.7672 -0.6230
  253WAT      O 1160   4.827   0.648   4.216 -0.0559  0.0133 -0.0982
  253WAT     H1 1161   4.905   0.659   4.271 -0.7833  2.5129  0.5992
  253WAT     H2 1162   4.769   0.593   4.268  0.9360 -1.2620 -0.3060
  254WAT      O 1163   0.184   2.630   3.073  0.4482 -0.0627  0.4358
  254WAT     H1 1164   0.133   2.558   3.110 -3.8788  3.1364  1.5925
  254WAT     H2 1165   0.242   2.658   3.143  0.5322 -1.0332  0.7599
  255WAT      O 1166   4.057   3.101   5.342 -0.1772  0.0595 -0.0451
  255WAT     H1 1167   4.147   3.089   5.372  1.3336  1.3082 -3.5229
  255WAT     H2 1168   4.043   3.031   5.279 -0.2590  1.8275 -2.1255
  256WAT      O 1169   5.694   2.978   0.653  0.1115  0.5683  0.8533
  256WAT     H1 1170   5.675   3.063   0.693 -0.5624  1.3468 -1.0417
  256WAT     H2 1171   5.750   2.999   0.578 -1.0309 -0.5144 -0.3387
  257WAT      O 1172   4.022   5.444   2.445 -0.2516 -0.2936 -0.1306
  257WAT     H1 1173   3.986   5.532   2.443 -0.2084 -0.2868 -1.1777
  257WAT     H2 1174   4.012   5.416   2.536 -0.7935  0.5687  0.0868
  258WAT      O 1175   1.482   2.680   3.729 -0.2402  0.0859  0.0025
  258WAT     H1 1176   1.567   2.724   3.733 -0.4701  0.5430 -0.1587
  258WAT     H2 1177   1.499   2.602   3.676 -0.3581  1.1763 -1.7040
  259WAT      O 1178   5.989   5.638   2.432  0.2444 -0.5347 -0.5561
  259WAT     H1 1179   5.919   5.675   2.487  0.0067 -1.2338 -0.3737
  259WAT     H2 1180   6.069   5.652   2.482  0.3684  1.1146 -1.1857
  260WAT      O 1181   6.979   1.642   4.132 -0.0399 -0.0599 -0.2393
  260WAT     H1 1182   7.050   1.583   4.106  1.8935  1.6627  0.7986
  260WAT     H2 1183   6.926   1.591   4.193  1.5559 -0.7707  0.6175
  261WAT      O 1184   6.725   5.386   4.518 -0.3955  0.0003  0.2567
  261WAT     H1 1185   6.766   5.404   4.603  1.7285 -0.3297 -0.6291
  261WAT     H2 1186   6.757   5.455   4.461 -0.4932 -0.6977 -0.6646
  262WAT      O 1187   1.986   0.639   3.017 -0.4794  0.2078  0.3590
  262WAT     H1 1188   2.005   0.546   3.004  0.8182  0.7263 -2.2862
  262WAT     H2 1189   1.892   0.646   3.003 -0.5429 -0.6832  0.2544
  263WAT      O 1190   2.576   0.480   1.561 -0.0036 -1.0566  0.0735
  263WAT     H1 1191   2.565   0.523   1.476  0.0634 -1.5092 -0.1715
  263WAT     H2 1192   2.495   0.499   1.608 -0.5407 -1.7667 -0.5331
  264WAT      O 1193   5.565   0.476   5.806 -0.1936 -0.0142  0.2492
  264WAT     H1 1194   5.520   0.426   5.738  0.4094 -0.1151 -0.0786
  264WAT     H2 1195   5.502   0.480   5.878 -0.4949 -0.6794  0.0311
  265WAT      O 1196   4.471   4.204   0.432 -0.4468  0.0440  0.3274
  265WAT     H1 1197   4.498   4.132   0.489  1.7803  1.3158  0.9607
  265WAT     H2 1198   4.377   4.190   0.419 -0.4169 -1.9609  1.8596
  266WAT      O 1199   3.760   4.647   3.700 -0.0872  0.1563  0.5978
  266WAT     H1 1200   3.799   4.569   3.739 -0.0736 -0.2414 -0.1850
  266WAT     H2 1201   3.822   4.717   3.719 -0.0369 -0.0518  1.1963
  267WAT      O 1202   6.931   1.114   3.197 -0.0747  0.0061  0.0978
  267WAT     H1 1203   6.963   1.200   3.222  0.0252  0.0884 -0.3074
  267WAT     H2 1204   6.932   1.063   3.279  0.4600  0.1999  0.2137
  268WAT      O 1205   2.927   0.670   5.485 -0.1411 -0.4842  0.5413
  268WAT     H1 1206   2.957   0.708   5.568  2.3006 -0.4577 -0.2787
  268WAT     H2 1207   2.954   0.579   5.490  0.8608 -0.2717 -0.5634
  269WAT      O 1208   0.786   5.256   2.421 -0.7893  0.4081 -0.2161
  269WAT     H1 1209   0.714   5.312   2.393 -1.0469  0.1260 -0.1269
  269WAT     H2 1210   0.755   5.218   2.503 -0.1603  1.0118  0.3117
  270WAT      O 1211   2.982   0.212   1.227  0.0625  0.1800  0.1878
  270WAT     H1 1212   3.022   0.208   1.314  1.5046  1.0008 -0.3987
  270WAT     H2 1213   3.026   0.285   1.184 -0.9713  0.0910 -1.0734
  271WAT      O 1214   1.805   2.702   1.785 -0.4125  0.0688  0.2028
  271WAT     H1 1215   1.738   2.688   1.718  0.3689 -1.5273 -0.2951
  271WAT     H2 1216   1.758   2.747   1.856 -2.2722 -1.8019  0.2569
  272WAT      O 1217   1.747   3.007   3.855 -0.1827  0.0210 -0.8179
  272WAT     H1 1218   1.708   3.075   3.800  1.2869  2.1390  0.5616
  272WAT     H2 1219   1.686   2.998   3.928  0.8006  1.9039  0.3394
  273WAT      O 1220   1.460   3.607   5.580  0.0876  0.0586 -0.5068
  273WAT     H1 1221   1.475   3.662   5.503 -0.3104  1.5555  0.4439
  273WAT     H2 1222   1.364   3.601   5.586  0.1230 -1.1504 -0.8580
  274WAT      O 1223   3.896   2.879   1.903 -0.0653  0.1996  0.4982
  274WAT     H1 1224   3.938   2.947   1.850  1.8204  0.7232  2.5221
  274WAT     H2 1225   3.817   2.921   1.938 -0.2346  0.5102 -0.2365
  275WAT      O 1226   5.154   6.361   5.374  0.1392 -0.5557 -0.1616
  275WAT     H1 1227   5.105   6.310   5.310  0.2677  0.2230 -0.9113
  275WAT     H2 1228   5.096   6.369   5.449 -0.0891 -1.3259 -0.2506
  276WAT      O 1229   6.080   1.292   2.089 -0.2797 -0.6256  0.3428
  276WAT     H1 1230   6.137   1.228   2.048  0.1646  0.6003 -1.0389
  276WAT     H2 1231   6.046   1.248   2.167  1.1805 -1.9882  0.2523
  277WAT      O 1232   1.266   2.535   3.413 -0.2491  0.3783  0.3281
  277WAT     H1 1233   1.343   2.591   3.408 -1.2167  1.7063 -0.2039
  277WAT     H2 1234   1.235   2.528   3.323 -0.8830  0.0539  0.5616
  278WAT      O 1235   2.513   0.758   0.493  0.2106  0.5465 -0.3629
  278WAT     H1 1236   2.565   0.821   0.543 -1.3577  1.1439  0.5978
  278WAT     H2 1237   2.445   0.729   0.554 -2.3697  2.0121 -2.3520
  279WAT      O 1238   5.539   5.130   3.781  0.0456 -0.6380 -0.0198
  279WAT     H1 1239   5.448   5.138   3.809  0.3853 -0.8479  1.2327
  279WAT     H2 1240   5.590   5.150   3.860  1.0725 -1.4431 -0.4506
  280WAT      O 1241   4.338   5.689   0.021  0.4968  0.0880  0.4502
  280WAT     H1 1242   4.292   5.604   0.020 -1.9148  1.2698  2.0837
  280WAT     H2 1243   4.429   5.667  -0.001 -0.0984 -2.8615  0.5019
  281WAT      O 1244   7.355   6.131   2.149 -0.0795 -0.1987  0.2731
  281WAT     H1 1245   7.428   6.070   2.138  0.7670  1.0414 -1.1813
  281WAT     H2 1246   7.374   6.204   2.090 -2.3021  0.3475  0.1399
  282WAT      O 1247   6.871   3.385   4.167 -0.5177 -0.7973 -0.1263
  282WAT     H1 1248   6.875   3.291   4.148 -0.9540 -0.7122 -0.6563
  282WAT     H2 1249   6.962   3.410   4.183 -0.5015 -1.5082  1.0054
  283WAT      O 1250   2.131   0.083   3.547 -0.1501 -0.1000  0.2374
  283WAT     H1 1251   2.037   0.078   3.528 -0.4398 -0.5611  1.6669
  283WAT     H2 1252   2.145   0.173   3.575  0.2538  0.5454 -1.8939
  284WAT      O 1253   1.229   4.963   3.709  0.0906 -0.0663 -0.4456
  284WAT     H1 1254   1.198   5.002   3.792  1.7087 -0.9949  0.6399
  284WAT     H2 1255   1.206   4.871   3.716 -0.4967 -0.0134 -1.4367
  285WAT      O 1256   2.247   7.194   5.601  0.2605 -0.2051  0.0366
  285WAT     H1 1257   2.233   7.247   5.679 -2.1528 -0.2141 -0.3235
  285WAT     H2 1258   2.267   7.106   5.635  2.1995  0.4041  0.6106
  286WAT      O 1259   4.368   5.586   1.079  0.0439 -0.2242  0.9682
  286WAT     H1 1260   4.330   5.506   1.115 -1.2700 -0.3908 -0.6534
  286WAT     H2 1261   4.461   5.582   1.103 -0.1175 -1.9231  1.4285
  287WAT      O 1262   2.556   2.852   3.133 -0.5788 -0.4535 -0.0899
  287WAT     H1 1263   2.648   2.831   3.116 -0.3894 -0.5175  0.9729
  287WAT     H2 1264   2.551   2.865   3.227 -1.9793 -2.0193  0.0912
  288WAT      O 1265   2.658   2.207   0.473 -0.0054 -0.3647  0.2429
  288WAT     H1 1266   2.615   2.249   0.398  0.7269 -0.1308 -0.0551
  288WAT     H2 1267   2.703   2.131   0.435  1.6755  0.6337  0.1584
  289WAT      O 1268   1.266   3.156   1.433  0.0360  1.0008 -0.1293
  289WAT     H1 1269   1.300   3.210   1.504 -0.3431 -1.0037  1.6593
  289WAT     H2 1270   1.170   3.164   1.440 -0.0072  1.1725 -0.7664
  290WAT      O 1271   2.642   7.149   1.509  0.0135 -0.0507 -0.2639
  290WAT     H1 1272   2.606   7.105   1.586 -1.6792  2.7916  0.7346
  290WAT     H2 1273   2.733   7.167   1.532 -0.2686  0.1047  0.8150
  291WAT      O 1274   2.083   0.293   6.003  0.6818 -0.1745 -0.4625
  291WAT     H1 1275   2.139   0.329   6.072 -0.5809  0.2655  0.3782
  291WAT     H2 1276   2.053   0.209   6.037 -0.1557  0.1618 -0.3426
  292WAT      O 1277   6.523   0.142   3.571 -0.5139 -0.3228  0.0395
  292WAT     H1 1278   6.581   0.090   3.516  0.6444  0.4770  0.4503
  292WAT     H2 1279   6.539   0.233   3.544 -1.3762 -0.0658  0.3570
  293WAT      O 1280   3.679   6.175   4.498  0.4627 -0.6420 -0.6658
  293WAT     H1 1281   3.682   6.194   4.592  0.2473 -0.8048 -0.6258
  293WAT     H2 1282   3.650   6.257   4.458 -1.3760 -1.1292 -0.4097
  294WAT      O 1283   1.076   6.599   4.912  0.0351 -0.2580  0.4852
  294WAT     H1 1284   1.044   6.677   4.957 -0.1795  0.5576 -0.9983
  294WAT     H2 1285   1.126   6.633   4.837 -0.3489 -1.5237 -0.3851
  295WAT      O 1286   6.991   7.089   2.684 -0.2627  0.1393 -0.1306
  295WAT     H1 1287   6.953   7.002   2.669  0.1926  0.0658 -0.8568
  295WAT     H2 1288   7.026   7.084   2.773 -0.1784 -0.4432 -0.1914
  296WAT      O 1289   6.201   1.034   2.007  0.3077 -0.4465  0.0733
  296WAT     H1 1290   6.286   1.004   2.039 -0.1678 -1.5288  0.3846
  296WAT     H2 1291   6.138   0.997   2.069 -0.3779  0.6031  0.0328
  297WAT      O 1292   0.360   5.438   4.720 -0.2447 -0.0230  0.3552
  297WAT     H1 1293   0.311   5.510   4.758  2.1064  2.3226 -0.7642
  297WAT     H2 1294   0.433   5.424   4.780  0.7021  0.2668 -0.6957
  298WAT      O 1295   1.031   1.904   0.473  0.4715  0.3082 -0.1929
  298WAT     H1 1296   1.085   1.926   0.549  0.4466 -1.2327  0.3041
  298WAT     H2 1297   0.953   1.862   0.510  0.7220 -0.9800 -1.0702
  299WAT      O 1298   5.985   5.357   0.829 -0.2905  0.0557  0.0088
  299WAT     H1 1299   6.003   5.401   0.746 -1.1955  2.9857  1.2299
  299WAT     H2 1300   6.048   5.285   0.832  3.0972  2.6889 -1.1429
  300WAT      O 1301   0.613   6.558   3.176  0.0564 -0.0711  0.2897
  300WAT     H1 1302   0.555   6.614   3.227 -0.5525 -0.1074 -0.3447
  300WAT     H2 1303   0.602   6.589   3.086  0.6975 -0.3640  0.1050
  301WAT      O 1304   7.609   4.473   1.880 -0.1415 -0.6687  0.1762
  301WAT     H1 1305   7.627   4.456   1.972 -1.5154  0.9080  0.7872
  301WAT     H2 1306   7.514   4.467   1.872 -0.0302 -1.0396 -1.2067
  302WAT      O 1307   5.186   3.167   5.855 -0.4319 -0.4992  0.1948
  302WAT     H1 1308   5.193   3.256   5.888  0.0375 -0.3230 -0.3747
  302WAT     H2 1309   5.098   3.139   5.881 -2.4029  1.6724 -3.4104
  303WAT      O 1310   0.357   1.501   3.985 -0.0745  0.0381  0.4565
  303WAT     H1 1311   0.291   1.570   3.976 -1.1375 -1.0238 -0.1545
  303WAT     H2 1312   0.434   1.535   3.939 -0.4222  1.0169  0.5878
  304WAT      O 1313   0.604   6.830   6.216  0.2023 -0.1089  0.3705
  304WAT     H1 1314   0.530   6.837   6.276 -0.6188 -0.8811 -0.5320
  304WAT     H2 1315   0.645   6.917   6.219 -0.5550  0.2359  1.0992
  305WAT      O 1316   4.962   3.094   3.088 -0.3845 -0.2525  0.2282
  305WAT     H1 1317   5.040   3.140   3.119 -2.0385  3.3889 -0.4871
  305WAT     H2 1318   4.973   3.090   2.993 -0.8762 -0.0375  0.1587
  306WAT      O 1319   4.355   0.166   5.749  0.3863  0.1709  0.9364
  306WAT     H1 1320   4.323   0.076   5.742 -0.6161  0.5396  0.6920
  306WAT     H2 1321   4.436   0.158   5.799  0.8873 -0.9960 -0.0023
  307WAT      O 1322   1.805   2.760   2.693 -0.0296 -0.2602  0.4102
  307WAT     H1 1323   1.776   2.728   2.607  1.1865 -2.6272  0.7922
  307WAT     H2 1324   1.753   2.838   2.709  0.4404  0.8692 -2.9306
  308WAT      O 1325   4.518   0.182   2.227  0.4029  0.1810 -0.4187
  308WAT     H1 1326   4.449   0.232   2.270  0.4722  0.4922 -0.6701
  308WAT     H2 1327   4.598   0.207   2.273  0.3106 -0.4402  0.1031
  309WAT      O 1328   3.343   0.346   4.287  0.0372 -0.0636 -0.4985
  309WAT     H1 1329   3.399   0.327   4.362 -2.8795 -1.0928  1.6038
  309WAT     H2 1330   3.315   0.437   4.300  0.1499  0.0179 -0.8036
  310WAT      O 1331   6.164   3.635   0.215  0.3892  0.5249 -0.0261
  310WAT     H1 1332   6.157   3.652   0.309 -0.9198 -0.3313  0.0611
  310WAT     H2 1333   6.128   3.714   0.174  0.0768  0.5155  0.2219
  311WAT      O 1334   5.032   4.025   2.915  0.3197 -0.2242 -0.0381
  311WAT     H1 1335   5.073   3.940   2.931  2.6723  0.6491 -1.0626
  311WAT     H2 1336   5.074   4.084   2.977 -1.2156  0.2566  0.5831
  312WAT      O 1337   3.765   1.796   3.036 -0.0201  0.1113  0.1274
  312WAT     H1 1338   3.833   1.755   3.090 -1.7861 -1.6408  1.1830
  312WAT     H2 1339   3.686   1.744   3.054 -1.8218  2.4570 -0.4965
  313WAT      O 1340   0.972   0.028   0.707  0.2587  0.0668  0.0211
  313WAT     H1 1341   0.922   0.072   0.775 -1.5030 -0.6139 -0.7792
  313WAT     H2 1342   0.979  -0.063   0.736  0.8092  0.1035  0.0084
  314WAT      O 1343   4.035   3.694   1.843  0.8618 -0.2836 -0.3393
  314WAT     H1 1344   4.083   3.675   1.762  0.5896 -0.0888 -0.5457
  314WAT     H2 1345   4.063   3.782   1.867 -0.0738  0.1959 -0.9530
  315WAT      O 1346   5.119   5.229   0.446 -0.7099 -0.5230 -0.6906
  315WAT     H1 1347   5.048   5.289   0.424 -0.1643  0.1523 -0.6549
  315WAT     H2 1348   5.083   5.172   0.513 -1.2642 -0.2809 -0.7783
  316WAT      O 1349   1.813   4.482   1.032  0.1449  0.4844  0.9393
  316WAT     H1 1350   1.897   4.524   1.012 -0.2147  1.4357  1.3571
  316WAT     H2 1351   1.835   4.411   1.092  0.7510  0.1697  0.3550
  317WAT      O 1352   5.707   5.314   0.493 -0.1766 -0.0163 -0.2251
  317WAT     H1 1353   5.695   5.273   0.579  0.0317  0.7327  0.1671
  317WAT     H2 1354   5.637   5.380   0.489  0.5274  0.7490 -0.1366
  318WAT      O 1355   6.511   2.670   0.725  0.1791  0.0893 -0.2079
  318WAT     H1 1356   6.486   2.713   0.807 -0.9154 -0.5991 -0.1586
  318WAT     H2 1357   6.430   2.629   0.694  0.3070  1.2299 -2.2113
  319WAT      O 1358   1.040   4.393   0.859  0.1688 -0.4935 -0.0339
  319WAT     H1 1359   1.004   4.341   0.932 -1.6133 -0.0697 -0.5569
  319WAT     H2 1360   1.069   4.474   0.900  1.8807 -1.3812  0.6122
  320WAT      O 1361   3.384   0.725   3.581 -0.3166  0.9006 -0.2224
  320WAT     H1 1362   3.374   0.670   3.503  1.0412 -1.2424  0.9912
  320WAT     H2 1363   3.367   0.665   3.654 -0.5620  2.5847  1.1687
  321WAT      O 1364   2.989   1.378   1.587  0.1838 -0.5318 -0.0817
  321WAT     H1 1365   2.999   1.319   1.512 -1.8645 -0.5284 -0.4102
  321WAT     H2 1366   2.900   1.411   1.580  1.1470  2.4156  0.2559
  322WAT      O 1367   3.784   1.121   3.289 -0.7658  0.2285  0.5300
  322WAT     H1 1368   3.782   1.028   3.311 -1.1234 -0.3048 -1.5394
  322WAT     H2 1369   3.693   1.142   3.265 -0.3711  0.6603 -0.6424
  323WAT      O 1370   3.112   6.656   3.506  0.4694 -0.1526  0.0838
  323WAT     H1 1371   3.039   6.605   3.542 -0.2463  0.3426 -0.6441
  323WAT     H2 1372   3.147   6.704   3.582 -0.1022 -0.2298  0.4047
  324WAT      O 1373   1.373   0.890   5.959  0.1701  0.2565 -0.4996
  324WAT     H1 1374   1.322   0.832   6.014  0.2203  1.2030  0.5866
  324WAT     H2 1375   1.311   0.924   5.894 -0.6142  1.3684  0.7811
  325WAT      O 1376   5.796   3.706   3.443  0.0115  0.0194  0.0496
  325WAT     H1 1377   5.785   3.746   3.529  0.0306 -0.9321  0.5062
  325WAT     H2 1378   5.717   3.731   3.394 -1.3498 -1.6881  1.2619
  326WAT      O 1379   0.590   2.844   4.473  0.1131 -0.1148  0.0715
  326WAT     H1 1380   0.606   2.850   4.567 -0.2948  0.4508  0.1109
  326WAT     H2 1381   0.516   2.903   4.457  1.8628  1.9445 -1.0160
  327WAT      O 1382   0.447   5.106   2.441 -0.0229  0.5409  0.7526
  327WAT     H1 1383   0.432   5.126   2.533  0.7559 -0.4552  1.1132
  327WAT     H2 1384   0.449   5.011   2.437  0.8835  0.5774 -0.1361
  328WAT      O 1385   1.654   1.040   4.897  0.0547 -0.1865 -0.1730
  328WAT     H1 1386   1.740   0.997   4.891  0.8807  1.1326  1.3769
  328WAT     H2 1387   1.612   1.020   4.813  0.7703 -3.1123  0.0663
  329WAT      O 1388   3.100   6.599   1.048 -0.3354 -0.2034 -0.1147
  329WAT     H1 1389   3.132   6.510   1.062 -0.5810 -0.1455  0.8846
  329WAT     H2 1390   3.101   6.639   1.135  0.1284  0.9000 -0.5977
  330WAT      O 1391   1.876   5.989   2.483 -0.0744 -0.3542  0.0187
  330WAT     H1 1392   1.803   5.996   2.544 -0.7228  1.9472 -0.9281
  330WAT     H2 1393   1.933   6.063   2.504  0.6670 -0.6300 -0.9154
  331WAT      O 1394   4.058   0.775   3.062 -0.2735 -0.5958  0.3262
  331WAT     H1 1395   4.133   0.719   3.044 -0.5575 -0.8404 -0.1078
  331WAT     H2 1396   4.037   0.758   3.153  0.3112 -0.3898  0.5036
  332WAT      O 1397   5.523   3.229   5.001  0.0933  0.0354 -0.3002
  332WAT     H1 1398   5.484   3.278   4.929  2.2780  2.3877 -0.0673
  332WAT     H2 1399   5.592   3.177   4.960  1.0699  1.0683 -0.0411
  333WAT      O 1400   6.418   2.068   1.347  0.1955 -0.0041  0.6160
  333WAT     H1 1401   6.424   2.097   1.438  1.8620 -0.0956  0.5624
  333WAT     H2 1402   6.424   1.972   1.352  2.2684  0.0562  0.3369
  334WAT      O 1403   0.707   6.537   0.087  0.9396  0.1880  0.3691
  334WAT     H1 1404   0.707   6.561   0.180  1.3308 -1.3831  0.8085
  334WAT     H2 1405   0.794   6.561   0.056  0.6136  1.2466  0.2463
  335WAT      O 1406   0.362   0.315   3.259 -0.0333 -0.1108  0.3891
  335WAT     H1 1407   0.323   0.251   3.318  1.9177 -1.4277  0.3234
  335WAT     H2 1408   0.342   0.400   3.299 -3.1021 -0.6130  0.2181
  336WAT      O 1409   5.539   5.842   4.956  0.2161  0.4797  0.7720
  336WAT     H1 1410   5.533   5.747   4.942  2.3072 -0.0345  2.7750
  336WAT     H2 1411   5.448   5.871   4.961 -0.4732 -1.3556 -0.0799
  337WAT      O 1412   7.618   1.592   0.796 -0.1782  0.5215 -0.1729
  337WAT     H1 1413   7.555   1.586   0.868 -1.1437 -1.5040 -1.1214
  337WAT     H2 1414   7.677   1.518   0.809  0.8489  1.2723 -0.4054
  338WAT      O 1415   4.897   5.778   4.866  0.1633 -0.0142 -0.6878
  338WAT     H1 1416   4.945   5.823   4.796 -1.2532  3.1379  0.2101
  338WAT     H2 1417   4.955   5.783   4.942  0.3553 -0.5378 -0.7925
  339WAT      O 1418   3.983   0.654   2.450  0.1478  0.1884 -0.0723
  339WAT     H1 1419   4.020   0.596   2.517  1.0531  0.1943 -0.5542
  339WAT     H2 1420   3.990   0.741   2.488 -0.3047  0.0922  0.2455
  340WAT      O 1421   0.121   0.166   2.243 -0.2677 -0.3731 -0.2839
  340WAT     H1 1422   0.208   0.200   2.264 -0.6167 -0.1314  0.8598
  340WAT     H2 1423   0.063   0.242   2.252 -0.8248 -0.8852  0.6608
  341WAT      O 1424   2.641   4.575   3.436 -0.2182  0.2387 -0.2112
  341WAT     H1 1425   2.615   4.495   3.391 -0.4649  0.6237 -0.7635
  341WAT     H2 1426   2.657   4.639   3.366 -0.8855  0.9271  0.2428
  342WAT      O 1427   4.503   3.718   0.208 -0.1079 -0.3531 -0.0069
  342WAT     H1 1428   4.463   3.793   0.253  0.2274  0.4133 -0.9684
  342WAT     H2 1429   4.480   3.643   0.263 -1.9155  0.2021  0.0731
  343WAT      O 1430   4.165   3.634   4.043 -0.1854 -0.2193  0.9139
  343WAT     H1 1431   4.226   3.691   4.089  1.9373 -0.2236 -1.6175
  343WAT     H2 1432   4.142   3.682   3.964 -0.7329 -1.6162  0.1824
  344WAT      O 1433   7.016   6.513   3.524 -0.0926 -0.1723  0.2028
  344WAT     H1 1434   6.929   6.474   3.531  0.3741 -1.4582 -0.8546
  344WAT     H2 1435   7.073   6.453   3.571  0.8334 -1.5412 -2.5026
  345WAT      O 1436   4.026   1.014   0.490 -0.2045 -0.3889 -0.6229
  345WAT     H1 1437   4.026   0.965   0.407 -1.9994 -2.1720  0.3483
  345WAT     H2 1438   4.004   0.948   0.556  0.8917  1.0445  1.2684
  346WAT      O 1439   6.826   6.948   0.414 -0.4295 -0.6094 -0.2564
  346WAT     H1 1440   6.883   6.920   0.486  1.1613  2.8813  0.0230
  346WAT     H2 1441   6.738   6.946   0.450  0.1864 -0.3551  1.3311
  347WAT      O 1442   5.638   6.142   5.590 -0.3312  0.1396  0.0347
  347WAT     H1 1443   5.726   6.119   5.562 -0.5859 -0.6101 -0.1661
  347WAT     H2 1444   5.649   6.182   5.676  0.2808  0.8055 -0.3439
  348WAT      O 1445   3.170   2.085   2.588  0.6589  0.1460 -0.2434
  348WAT     H1 1446   3.201   2.152   2.527  0.8650  1.8084  1.6091
  348WAT     H2 1447   3.075   2.096   2.589  0.6446  0.0315 -0.3647
  349WAT      O 1448   7.498   3.566   1.974  0.0875 -0.3086  0.0313
  349WAT     H1 1449   7.569   3.551   2.036  0.3507  0.2789 -0.1201
  349WAT     H2 1450   7.436   3.495   1.991  0.5723 -0.6608  0.3605
  350WAT      O 1451   7.578   6.119   4.779  0.0845  0.8248 -0.1239
  350WAT     H1 1452   7.668   6.109   4.747  0.8510  2.0186  1.4893
  350WAT     H2 1453   7.568   6.214   4.792 -0.8872  0.5843  1.0842
  351WAT      O 1454   1.967   2.361   1.991  0.1739  0.2603  0.0910
  351WAT     H1 1455   1.881   2.328   2.014  0.0860  1.2150  1.2360
  351WAT     H2 1456   2.015   2.284   1.961 -0.5819 -0.5670  0.9534
  352WAT      O 1457   2.301   5.698   2.339 -0.4866 -0.4892 -0.2320
  352WAT     H1 1458   2.302   5.602   2.345  1.6421 -0.4873  0.1168
  352WAT     H2 1459   2.305   5.717   2.246  1.5759 -0.7985 -0.2476
  353WAT      O 1460   1.121   1.097   6.224  0.1301 -0.1444 -0.0830
  353WAT     H1 1461   1.062   1.104   6.299  1.4972  0.3925  0.9621
  353WAT     H2 1462   1.124   1.003   6.205 -0.5105 -0.2484  0.2889
  354WAT      O 1463   4.153   6.060   1.947  0.4786 -0.6051 -0.0710
  354WAT     H1 1464   4.173   6.055   1.854 -0.4981 -0.0062 -0.3277
  354WAT     H2 1465   4.062   6.089   1.951  0.3917 -0.9594  1.0683
  355WAT      O 1466   5.878   0.312   4.706 -0.1284 -0.2562 -0.0301
  355WAT     H1 1467   5.954   0.325   4.764 -0.4454  0.4505  0.2452
  355WAT     H2 1468   5.852   0.221   4.721  0.7665 -0.5573 -0.2565
  356WAT      O 1469   0.604   0.910   3.008 -0.3782 -0.6896  0.1640
  356WAT     H1 1470   0.679   0.863   2.973  0.2643  0.2206  0.2707
  356WAT     H2 1471   0.544   0.842   3.039  0.9941 -1.4057  1.3379
  357WAT      O 1472   5.773   2.027   4.103  0.2373 -0.0468 -0.3078
  357WAT     H1 1473   5.748   1.992   4.189  1.2220  0.7231  0.3104
  357WAT     H2 1474   5.868   2.013   4.099  0.1642 -0.2755 -1.3757
  358WAT      O 1475   4.886   5.790   5.635 -0.7456  0.3632 -0.1778
  358WAT     H1 1476   4.797   5.759   5.653 -0.2436 -0.4071  1.1647
  358WAT     H2 1477   4.939   5.752   5.706  0.2065  3.0402  0.6622
  359WAT      O 1478   0.230   2.435   0.623 -0.7760 -0.0805 -0.1490
  359WAT     H1 1479   0.282   2.441   0.544 -0.3808  1.0389  0.1807
  359WAT     H2 1480   0.140   2.443   0.594 -0.5521  2.1082 -0.3360
  360WAT      O 1481   7.357   4.945   0.821 -0.1170  0.2237 -0.2787
  360WAT     H1 1482   7.392   4.861   0.791  1.6478  1.3081 -1.4324
  360WAT     H2 1483   7.321   4.926   0.908 -0.3838 -1.8412 -0.7786
  361WAT      O 1484   7.153   6.536   5.674  0.0507  0.1195  0.6355
  361WAT     H1 1485   7.095   6.551   5.599 -0.9160  0.0948  1.3636
  361WAT     H2 1486   7.152   6.619   5.722  0.2465 -0.0386  0.9151
  362WAT      O 1487   1.967   6.229   3.408 -0.3285 -0.0843  0.0162
  362WAT     H1 1488   1.883   6.183   3.410 -1.1713  1.3650  2.0071
  362WAT     H2 1489   2.023   6.177   3.465 -0.0370 -0.7464 -0.8630
  363WAT      O 1490   6.421   2.213   1.599 -0.3330  0.0931 -0.4939
  363WAT     H1 1491   6.374   2.269   1.661 -0.6948  2.2341 -2.5675
  363WAT     H2 1492   6.501   2.189   1.646 -1.1691  0.5259  1.2619
  364WAT      O 1493   0.393   2.376   2.397  0.1125  0.1284  0.5290
  364WAT     H1 1494   0.343   2.327   2.462 -0.9576  0.2732 -0.1559
  364WAT     H2 1495   0.435   2.446   2.447  1.7059 -1.4360  1.5390
  365WAT      O 1496   6.036   4.266   5.686 -0.0474 -0.0732 -0.0844
  365WAT     H1 1497   6.108   4.208   5.663 -1.5665 -1.5258 -1.5357
  365WAT     H2 1498   6.038   4.271   5.781  1.9959  0.0210 -0.0979
  366WAT      O 1499   7.262   1.983   3.770  0.0420 -0.3163  0.2534
  366WAT     H1 1500   7.269   2.054   3.834 -0.9403  0.2604 -0.2515
  366WAT     H2 1501   7.291   2.022   3.687 -0.0837 -0.6324  0.0579
  367WAT      O 1502   7.470   1.550   2.035  0.0713  0.3457  0.1207
  367WAT     H1 1503   7.402   1.492   2.001  0.2769  0.8386 -1.1476
  367WAT     H2 1504   7.480   1.618   1.969  0.7414  1.1257  0.9982
  368WAT      O 1505   0.969   6.612   0.073 -0.2798 -0.0550  0.2016
  368WAT     H1 1506   1.044   6.560   0.044 -0.5361 -0.1331 -0.3480
  368WAT     H2 1507   0.987   6.632   0.165 -0.2854 -1.3187  0.4988
  369WAT      O 1508   0.821   4.622   1.010  0.3575  0.0724  0.2533
  369WAT     H1 1509   0.867   4.561   1.067  0.5255 -0.1110 -0.0714
  369WAT     H2 1510   0.831   4.707   1.052  1.6171  0.1520 -0.1686
  370WAT      O 1511   2.077   0.565   0.550 -0.7897  0.4471 -0.1433
  370WAT     H1 1512   2.043   0.476   0.564  0.7887 -0.3187 -0.9606
  370WAT     H2 1513   2.107   0.592   0.637 -0.7480 -0.0526  0.0050
  371WAT      O 1514   3.885   2.547   3.375 -0.0129 -0.0741 -0.7272
  371WAT     H1 1515   3.969   2.529   3.417 -0.2206 -0.7776 -0.6018
  371WAT     H2 1516   3.843   2.461   3.368 -0.3638  0.1581 -1.5519
  372WAT      O 1517   3.182   5.526   4.776  0.1407 -0.1150  0.4099
  372WAT     H1 1518   3.114   5.462   4.757  0.1942  0.2199 -1.0285
  372WAT     H2 1519   3.145   5.610   4.747  0.8099  0.2042  0.4601
  373WAT      O 1520   1.542   3.842   1.027 -0.0243  0.1716 -0.1510
  373WAT     H1 1521   1.566   3.750   1.021  1.3987  0.2247  2.8856
  373WAT     H2 1522   1.523   3.856   1.120 -0.0942  2.9426 -0.4960
  374WAT      O 1523   2.505   5.702   2.525  0.7564  0.1889 -0.1281
  374WAT     H1 1524   2.435   5.704   2.459  0.5931 -1.3003 -0.0489
  374WAT     H2 1525   2.551   5.785   2.514  1.0259 -0.1968 -2.4339
  375WAT      O 1526   1.718   6.079   3.446 -0.4311  0.1423 -0.5509
  375WAT     H1 1527   1.624   6.100   3.450 -0.1090  1.8356 -1.0501
  375WAT     H2 1528   1.757   6.132   3.516  0.4748  1.6894 -2.1413
  376WAT      O 1529   2.402   6.931   2.334  0.2676  0.0171  0.2389
  376WAT     H1 1530   2.364   6.858   2.284  0.0555 -0.7565  1.4822
  376WAT     H2 1531   2.336   6.952   2.400  0.6816  0.7873  0.4146
  377WAT      O 1532   6.622   1.446   2.945 -0.1291  0.1090  0.6117
  377WAT     H1 1533   6.599   1.491   2.864  0.5231  0.4892  0.6249
  377WAT     H2 1534   6.557   1.477   3.009 -1.3582 -1.0866 -0.0230
  378WAT      O 1535   2.148   0.715   5.865  0.1114 -0.4805  0.2711
  378WAT     H1 1536   2.080   0.647   5.857 -0.1722 -0.1518 -0.1605
  378WAT     H2 1537   2.225   0.668   5.896  0.0024 -1.0600 -0.2953
  379WAT      O 1538   5.340   3.567   1.792 -0.3567 -0.1210 -0.2371
  379WAT     H1 1539   5.277   3.620   1.745  1.5137 -0.9606 -4.0504
  379WAT     H2 1540   5.418   3.622   1.798 -0.2823 -0.3380  1.2613
  380WAT      O 1541   3.469   3.874   4.561  0.1469 -0.3739  0.0426
  380WAT     H1 1542   3.416   3.798   4.587  0.0605  0.2133  1.6911
  380WAT     H2 1543   3.417   3.949   4.588  0.8219  0.2530 -0.3782
  381WAT      O 1544   0.275   1.767   3.462 -0.3006 -0.4419  0.0092
  381WAT     H1 1545   0.336   1.806   3.524 -1.6525  1.8200  0.0238
  381WAT     H2 1546   0.222   1.707   3.515  0.5803 -0.9510  0.3575
  382WAT      O 1547   2.554   1.195   4.418  0.5006 -0.4011  0.0846
  382WAT     H1 1548   2.593   1.205   4.332  0.6587 -0.6310  0.1272
  382WAT     H2 1549   2.626   1.208   4.479  0.2171  0.6162  0.2151
  383WAT      O 1550   2.078   0.725   3.264  0.8215 -0.2334 -0.0754
  383WAT     H1 1551   2.034   0.680   3.191 -0.1362 -1.2096  1.0662
  383WAT     H2 1552   2.120   0.801   3.223 -1.8828  0.7621 -1.2768
  384WAT      O 1553   0.937   4.237   2.195 -0.5458  0.1241  0.3639
  384WAT     H1 1554   0.992   4.222   2.272  0.0831 -2.2252 -0.4759
  384WAT     H2 1555   0.897   4.152   2.177 -2.5720  1.1924 -0.5141
  385WAT      O 1556   2.232   1.339   5.126  0.4986 -1.3249 -0.6852
  385WAT     H1 1557   2.307   1.316   5.181  0.3189 -1.2758 -0.4205
  385WAT     H2 1558   2.249   1.429   5.098  0.1871 -1.0611 -0.0390
  386WAT      O 1559   5.031   1.342   0.745  0.0352 -0.0112  0.4318
  386WAT     H1 1560   5.105   1.347   0.804  1.5016 -2.7011 -1.0024
  386WAT     H2 1561   4.964   1.294   0.794  0.8034 -1.2043  0.3348
  387WAT      O 1562   7.274   4.051   2.665 -0.5900  0.0423  0.0362
  387WAT     H1 1563   7.182   4.034   2.684 -0.7594 -1.3838 -1.7483
  387WAT     H2 1564   7.302   3.975   2.614  1.6387  0.3708  0.6806
  388WAT      O 1565   4.480   3.138   1.338 -0.4002  0.4314  0.0645
  388WAT     H1 1566   4.500   3.228   1.313  0.3862 -0.3089 -2.2304
  388WAT     H2 1567   4.389   3.142   1.369 -0.5861  1.9183 -0.5765
  389WAT      O 1568   5.432   2.561   5.178 -0.0924 -0.5669 -0.2192
  389WAT     H1 1569   5.414   2.468   5.191  0.6812 -0.6386  0.4358
  389WAT     H2 1570   5.362   2.591   5.120  0.6117 -1.9415 -1.8887
  390WAT      O 1571   1.028   2.959   0.860  0.5103 -0.1284  0.0569
  390WAT     H1 1572   1.027   3.052   0.883  0.6793  0.0409 -0.6150
  390WAT     H2 1573   1.007   2.914   0.942 -1.4800  0.5714 -0.0268
  391WAT      O 1574   4.955   3.725   1.357  0.5323 -0.1663  0.2334
  391WAT     H1 1575   4.907   3.685   1.430 -0.3826 -0.3708 -0.4589
  391WAT     H2 1576   4.960   3.818   1.379 -0.4028 -0.1029  0.2033
  392WAT      O 1577   2.191   6.272   5.957 -0.2876 -0.1541 -0.0674
  392WAT     H1 1578   2.268   6.218   5.976 -0.1240  0.3251  0.6586
  392WAT     H2 1579   2.149   6.285   6.042 -1.2759 -0.5458 -0.4737
  393WAT      O 1580   2.063   4.624   5.288 -0.1714 -0.2850  0.4342
  393WAT     H1 1581   2.103   4.559   5.229 -1.0263 -1.0465  0.6687
  393WAT     H2 1582   2.089   4.596   5.375 -0.5924 -0.3437  0.5403
  394WAT      O 1583   6.609   6.946   4.374 -0.2682  0.4932  0.2218
  394WAT     H1 1584   6.658   6.929   4.455 -0.9821  0.1515  0.5915
  394WAT     H2 1585   6.627   6.869   4.320 -0.9284  0.0330  0.6314
  395WAT      O 1586   4.860   4.969   4.476  0.6244  0.2139 -0.3051
  395WAT     H1 1587   4.850   5.025   4.399 -2.0196  1.3021  0.7238
  395WAT     H2 1588   4.817   4.887   4.453 -0.5597  0.6974  0.1178
  396WAT      O 1589   0.720   2.376   5.762 -0.5372  0.4041 -0.3204
  396WAT     H1 1590   0.778   2.453   5.766  1.0991 -0.8214  1.1811
  396WAT     H2 1591   0.680   2.372   5.848 -1.4538  0.1800 -0.7510
  397WAT      O 1592   6.130   2.235   4.076  0.2707  0.1245  0.0608
  397WAT     H1 1593   6.104   2.326   4.090  0.0624  0.0545  0.1383
  397WAT     H2 1594   6.098   2.189   4.154 -1.0030 -0.2900 -0.6816
  398WAT      O 1595   3.274   5.382   0.791  0.3259 -0.0675 -0.2347
  398WAT     H1 1596   3.310   5.440   0.858  1.1011 -1.4988  0.6568
  398WAT     H2 1597   3.196   5.344   0.831 -0.4966  0.7565 -1.0214
  399WAT      O 1598   6.656   3.001   0.831  0.3826 -0.0562  0.1148
  399WAT     H1 1599   6.643   2.957   0.915 -0.4565  0.6719  0.3894
  399WAT     H2 1600   6.719   2.947   0.784 -0.5409 -1.4852  0.4698
  400WAT      O 1601   1.764   3.823   1.532  0.3459 -0.2931 -0.2822
  400WAT     H1 1602   1.816   3.832   1.452 -1.0326  0.1666 -1.1608
  400WAT     H2 1603   1.680   3.790   1.503 -0.2067 -0.0728  0.9773
  401WAT      O 1604   1.865   1.051   1.254 -0.1550  0.4690 -0.9681
  401WAT     H1 1605   1.843   1.037   1.346  2.9475 -1.2213 -0.3453
  401WAT     H2 1606   1.942   1.108   1.256  0.2171  0.0743 -2.4784
  402WAT      O 1607   7.546   5.925   0.053 -0.1779 -0.3930  0.3144
  402WAT     H1 1608   7.639   5.902   0.061 -0.2614 -0.3889  1.3907
  402WAT     H2 1609   7.501   5.870   0.116 -0.5456  1.6002  1.9120
  403WAT      O 1610   4.685   1.373   5.452  0.0187  0.3315 -0.1795
  403WAT     H1 1611   4.712   1.320   5.377  1.4793  2.9248 -1.6406
  403WAT     H2 1612   4.767   1.391   5.499 -0.9264 -1.7457  2.5319
  404WAT      O 1613   3.435   6.552   0.949 -0.0823 -0.5522 -0.1954
  404WAT     H1 1614   3.374   6.484   0.977 -0.3603  0.1632  1.0347
  404WAT     H2 1615   3.380   6.629   0.933  0.0884 -0.8522 -2.6444
  405WAT      O 1616   5.919   4.991   0.879 -0.2598 -0.2651 -0.0422
  405WAT     H1 1617   5.851   5.022   0.938  1.1150  0.6572  1.1232
  405WAT     H2 1618   5.885   4.908   0.845 -1.4455 -0.4181  1.4050
  406WAT      O 1619   2.950   1.353   4.251 -0.1304  0.0267 -0.1335
  406WAT     H1 1620   2.895   1.380   4.325 -0.5624  1.4562 -0.9391
  406WAT     H2 1621   2.894   1.363   4.174  0.4033 -1.1676 -0.6940
  407WAT      O 1622   5.405   5.128   4.209  0.4115  0.2243  0.0189
  407WAT     H1 1623   5.485   5.075   4.206  1.0876  1.1642  0.8155
  407WAT     H2 1624   5.432   5.213   4.176 -0.2929  0.5249  0.2060
  408WAT      O 1625   6.433   2.267   1.135 -0.3513 -0.3480 -0.3316
  408WAT     H1 1626   6.427   2.201   1.204 -1.6657 -0.8946 -0.9335
  408WAT     H2 1627   6.527   2.274   1.117 -0.0258 -0.5172  1.1806
  409WAT      O 1628   4.218   4.759   2.707  0.4948  0.8440  0.3391
  409WAT     H1 1629   4.255   4.710   2.780  2.0129  0.2631 -0.7539
  409WAT     H2 1630   4.151   4.702   2.671  0.1037  0.9105  0.9512
  410WAT      O 1631   4.637   5.344   0.250  0.5103  0.0689 -0.3566
  410WAT     H1 1632   4.613   5.253   0.233  0.8823  0.3074 -2.3657
  410WAT     H2 1633   4.648   5.383   0.163 -1.4935  2.5548  0.4073
  411WAT      O 1634   4.381   0.302   2.429  0.5320 -0.0867 -0.1655
  411WAT     H1 1635   4.353   0.388   2.462  0.9148  0.5253 -1.3524
  411WAT     H2 1636   4.414   0.256   2.506 -2.6782 -0.4629  1.1387
  412WAT      O 1637   0.496   7.094   2.496  0.2035  0.2029 -0.1476
  412WAT     H1 1638   0.504   7.032   2.569 -0.7910 -0.3359 -0.4709
  412WAT     H2 1639   0.477   7.178   2.538 -1.6490 -0.3470  0.2004
  413WAT      O 1640   7.639   6.535   5.511  0.0722 -0.4539 -0.2505
  413WAT     H1 1641   7.654   6.568   5.422  2.4984  1.0103  0.5751
  413WAT     H2 1642   7.551   6.564   5.533  0.0456  0.6108 -1.6080
  414WAT      O 1643   0.278   4.459   3.161 -0.5123 -0.3454 -0.1417
  414WAT     H1 1644   0.271   4.439   3.254 -1.0856  0.2345 -0.0588
  414WAT     H2 1645   0.342   4.396   3.128 -0.8310 -1.0174  0.5012
  415WAT      O 1646   3.729   1.137   0.873  0.2040 -0.0520  0.7556
  415WAT     H1 1647   3.728   1.043   0.857 -0.3937 -0.0822  0.9609
  415WAT     H2 1648   3.783   1.173   0.803  2.3108 -0.7782  1.9201
  416WAT      O 1649   3.038   6.659   2.365  0.6677 -0.5713 -0.1068
  416WAT     H1 1650   3.052   6.753   2.357 -1.8568  0.0283  1.5045
  416WAT     H2 1651   2.974   6.638   2.297 -0.1653 -0.7409  0.7116
  417WAT      O 1652   4.181   3.657   0.448  0.2593 -0.9452  0.0859
  417WAT     H1 1653   4.089   3.670   0.423  0.4203 -0.0194 -0.0352
  417WAT     H2 1654   4.223   3.741   0.429  1.3656 -1.6890 -0.8514
  418WAT      O 1655   6.466   1.625   1.984 -0.0389 -0.3036 -0.0724
  418WAT     H1 1656   6.521   1.606   2.060  0.6091  0.7735 -0.2464
  418WAT     H2 1657   6.409   1.696   2.013  0.1202  0.0239 -0.5301
  419WAT      O 1658   4.848   1.067   3.359  0.1476 -0.1008 -0.2633
  419WAT     H1 1659   4.773   1.123   3.339  1.3055  1.5502 -0.2210
  419WAT     H2 1660   4.810   0.981   3.376 -1.8314  0.8935  0.7432
  420WAT      O 1661   0.050   6.886   0.626  0.6766  0.0758 -0.1704
  420WAT     H1 1662   0.117   6.831   0.585  1.2023  0.5278  0.0720
  420WAT     H2 1663   0.075   6.888   0.719  1.0381  1.2394 -0.2789
  421WAT      O 1664   3.374   4.248   5.699 -0.1441 -0.0508  0.1342
  421WAT     H1 1665   3.402   4.326   5.651 -0.1142 -0.3169 -0.2860
  421WAT     H2 1666   3.380   4.177   5.635 -0.0893 -0.4145  0.5396
  422WAT      O 1667   4.600   4.505   5.124 -0.4465 -0.2076 -0.0455
  422WAT     H1 1668   4.654   4.512   5.202 -3.0852 -0.6225  1.9466
  422WAT     H2 1669   4.596   4.412   5.106 -0.7630 -0.2005 -0.0068
  423WAT      O 1670   7.276   6.190   1.686  0.2983  0.0570 -0.8410
  423WAT     H1 1671   7.240   6.102   1.675  1.4332 -0.2794 -2.0804
  423WAT     H2 1672   7.331   6.203   1.609 -1.8362  2.8503 -2.0845
  424WAT      O 1673   4.874   0.174   4.939  0.0358 -0.0195 -0.8302
  424WAT     H1 1674   4.887   0.131   4.855  0.7072 -2.2410  0.3395
  424WAT     H2 1675   4.862   0.103   5.001 -1.7110  1.5660  0.8061
  425WAT      O 1676   1.526   6.445   2.093 -0.4120 -0.2685  0.2211
  425WAT     H1 1677   1.575   6.362   2.087  0.2733  0.1433 -0.0106
  425WAT     H2 1678   1.592   6.512   2.077 -1.6149  0.2198 -3.4219
  426WAT      O 1679   4.468   6.389   0.318  0.3421 -0.8239  0.0194
  426WAT     H1 1680   4.455   6.476   0.279  1.3469 -0.6138  0.1266
  426WAT     H2 1681   4.561   6.386   0.339  0.3914 -2.0658 -0.2989
  427WAT      O 1682   5.682   3.352   4.715 -0.4198  0.3078  0.7543
  427WAT     H1 1683   5.765   3.371   4.672  0.0039  0.4439  1.5940
  427WAT     H2 1684   5.650   3.272   4.673 -1.6140  2.0829 -2.0044
  428WAT      O 1685   0.619   3.791   1.872  0.1780 -0.3535 -0.2252
  428WAT     H1 1686   0.702   3.748   1.892 -0.3008 -1.4822 -0.6328
  428WAT     H2 1687   0.588   3.748   1.793 -1.6592 -1.1699  0.8922
  429WAT      O 1688   5.529   6.339   2.745 -0.2316  0.1939  0.2959
  429WAT     H1 1689   5.553   6.429   2.765 -0.0496 -0.2062  2.1382
  429WAT     H2 1690   5.570   6.288   2.815  0.1356 -1.3790 -1.0233
  430WAT      O 1691   3.477   2.060   3.886 -0.0440  0.2944  0.2393
  430WAT     H1 1692   3.483   2.005   3.964 -2.0904 -0.3810 -0.0250
  430WAT     H2 1693   3.545   2.126   3.898  1.7093 -1.5463  1.1444
  431WAT      O 1694   2.685   0.611   2.182 -0.3891 -0.0790  0.1503
  431WAT     H1 1695   2.743   0.661   2.125  0.0807 -1.5174 -0.6730
  431WAT     H2 1696   2.639   0.551   2.123 -0.4868 -1.0398  1.1649
  432WAT      O 1697   2.367   2.254   0.580 -0.3425 -0.1339 -0.0208
  432WAT     H1 1698   2.433   2.229   0.516 -0.2190  0.4635 -0.1387
  432WAT     H2 1699   2.383   2.199   0.656 -0.8158 -1.2256 -0.6904
  433WAT      O 1700   6.614   3.551   3.949 -0.2904  0.0461 -0.0260
  433WAT     H1 1701   6.703   3.518   3.937  0.1974  1.7609 -1.5785
  433WAT     H2 1702   6.580   3.501   4.023  2.2108 -0.1794  1.0885
  434WAT      O 1703   2.173   3.036   6.022 -0.3903 -0.1148 -0.0260
  434WAT     H1 1704   2.200   2.981   5.949 -1.3708 -0.1674 -0.3729
  434WAT     H2 1705   2.203   3.124   5.999  1.5073 -0.5351  0.7027
  435WAT      O 1706   4.283   7.144   1.522 -0.0020  0.3830  0.1008
  435WAT     H1 1707   4.352   7.083   1.549  0.8516  1.3901  0.2549
  435WAT     H2 1708   4.256   7.186   1.604 -0.7889  0.0307  0.0348
  436WAT      O 1709   1.449   4.032   3.779  0.2659 -0.1074  0.2939
  436WAT     H1 1710   1.483   4.102   3.835  0.9799 -0.4756  0.3275
  436WAT     H2 1711   1.496   4.042   3.697  1.0645 -1.1181  0.6101
  437WAT      O 1712   5.300   1.669   3.795  0.1518  0.2544  0.4410
  437WAT     H1 1713   5.258   1.628   3.870  0.8589  0.4357  0.9526
  437WAT     H2 1714   5.306   1.762   3.819 -2.0840  0.8431 -0.9982
  438WAT      O 1715   2.518   0.319   4.210 -0.4272 -0.1849 -0.2910
  438WAT     H1 1716   2.435   0.354   4.242 -1.2492 -1.0388 -1.3767
  438WAT     H2 1717   2.530   0.362   4.125  1.6308  1.9375  0.9531
  439WAT      O 1718   5.826   1.402   1.535 -0.2505  0.2547 -0.0697
  439WAT     H1 1719   5.894   1.467   1.516 -0.2963  1.3953  3.1223
  439WAT     H2 1720   5.871   1.331   1.580 -0.6791 -0.6547 -1.0256
  440WAT      O 1721   3.537   6.962   5.320 -0.8176  0.3096 -0.1817
  440WAT     H1 1722   3.572   6.875   5.336 -0.2845  0.7316  1.0091
  440WAT     H2 1723   3.526   6.966   5.225  0.0248 -0.7222 -0.3357
  441WAT      O 1724   0.369   5.570   3.637  0.3535 -0.1084 -0.5367
  441WAT     H1 1725   0.440   5.508   3.620  0.8590  0.0845  0.7956
  441WAT     H2 1726   0.306   5.521   3.689  0.5170  0.3460  0.0953
  442WAT      O 1727   7.376   2.315   5.837  0.2337 -0.0865 -0.3615
  442WAT     H1 1728   7.381   2.313   5.932 -0.6339  0.7934 -0.2734
  442WAT     H2 1729   7.369   2.224   5.811  2.5755 -0.5213  0.2507
  443WAT      O 1730   1.875   6.964   3.804  0.2284 -0.4207  0.2117
  443WAT     H1 1731   1.879   6.987   3.897  0.2321 -0.6002  0.2562
  443WAT     H2 1732   1.786   6.929   3.791  0.4823 -1.1154  0.3175
  444WAT      O 1733   4.194   1.790   4.765  0.2037 -0.3171 -0.3484
  444WAT     H1 1734   4.256   1.863   4.769 -0.4314  0.2041  0.3123
  444WAT     H2 1735   4.118   1.827   4.719  0.1598 -0.7855 -0.6616
  445WAT      O 1736   6.487   3.711   0.385  0.3295 -0.4167  0.0456
  445WAT     H1 1737   6.406   3.712   0.436  0.3775 -0.8034  0.1299
  445WAT     H2 1738   6.556   3.711   0.451  0.4042  0.0995 -0.0269
  446WAT      O 1739   1.634   2.900   5.771  0.2219  0.0132  0.1790
  446WAT     H1 1740   1.595   2.860   5.848 -1.0836 -1.3918 -1.1415
  446WAT     H2 1741   1.563   2.906   5.708  1.5995 -0.3998 -1.4956
  447WAT      O 1742   5.428   4.691   5.444  0.3457  0.3320  0.2531
  447WAT     H1 1743   5.414   4.611   5.494 -1.0993 -0.0913 -0.7552
  447WAT     H2 1744   5.500   4.736   5.489  2.5403 -2.4075 -0.2748
  448WAT      O 1745   7.524   5.133   5.389  0.1307 -0.1499  0.1436
  448WAT     H1 1746   7.460   5.127   5.459 -1.0889 -0.9708 -0.9957
  448WAT     H2 1747   7.520   5.048   5.345  0.7797  0.3835 -0.9831
  449WAT      O 1748   2.923   0.913   5.058 -0.2537  0.3767 -0.3703
  449WAT     H1 1749   2.862   0.858   5.009 -0.6474 -1.1737  1.6783
  449WAT     H2 1750   2.985   0.851   5.097  0.1149  1.5053  0.9291
  450WAT      O 1751   4.588   4.319   4.157  0.3669  0.3853 -0.0722
  450WAT     H1 1752   4.682   4.305   4.141  0.1831 -0.2691 -0.6165
  450WAT     H2 1753   4.585   4.369   4.239  1.1590 -0.3496  0.4193
  451WAT      O 1754   2.055   2.225   0.235 -0.0206 -0.2412  0.5741
  451WAT     H1 1755   2.017   2.313   0.228  0.9571  0.2575  1.2438
  451WAT     H2 1756   2.108   2.228   0.315  0.9686 -1.0638 -0.0176
  452WAT      O 1757   4.474   5.522   4.502 -0.1769  0.6226 -0.0634
  452WAT     H1 1758   4.509   5.470   4.574  0.4877  0.8579 -0.2114
  452WAT     H2 1759   4.431   5.597   4.545 -1.3671 -0.1624  0.1603
  453WAT      O 1760   7.140   5.225   0.761  0.5584  0.0428  0.0906
  453WAT     H1 1761   7.235   5.218   0.770  0.7193  2.3910  1.0090
  453WAT     H2 1762   7.110   5.247   0.849 -0.5076  1.8308 -0.6727
  454WAT      O 1763   6.319   4.220   3.923  0.5985  0.5319 -0.2561
  454WAT     H1 1764   6.261   4.144   3.913 -0.3260  1.2607 -0.5384
  454WAT     H2 1765   6.405   4.187   3.896  0.1651 -0.3497 -0.6222
  455WAT      O 1766   6.513   3.940   0.189 -0.1201  0.6489 -0.2448
  455WAT     H1 1767   6.603   3.969   0.177 -0.1799  0.5804 -0.8974
  455WAT     H2 1768   6.519   3.868   0.252  0.2796  0.6508 -0.2795
  456WAT      O 1769   2.341   2.727   5.356  0.0604  0.5151  0.2753
  456WAT     H1 1770   2.418   2.752   5.305  0.2326 -0.5064  0.0063
  456WAT     H2 1771   2.376   2.695   5.439 -0.0685  0.1072  0.1761
  457WAT      O 1772   6.758   3.654   6.186 -0.1658 -0.1449  0.6565
  457WAT     H1 1773   6.744   3.671   6.279 -0.0235 -2.9982  1.2881
  457WAT     H2 1774   6.673   3.623   6.154 -0.1597  0.6224 -0.1466
  458WAT      O 1775   0.524   0.632   1.846 -0.0954  0.5646 -0.1203
  458WAT     H1 1776   0.576   0.706   1.814 -0.0411  0.5013 -0.1778
  458WAT     H2 1777   0.472   0.669   1.918  0.8010  0.3826  0.6363
  459WAT      O 1778   1.602   5.737   3.022 -0.6776 -0.2931  0.2334
  459WAT     H1 1779   1.602   5.643   3.044 -1.7323  0.4876  4.4635
  459WAT     H2 1780   1.691   5.754   2.992 -0.7756 -2.7737 -1.8816
  460WAT      O 1781   5.771   6.785   1.036  0.0580  0.0987 -0.1508
  460WAT     H1 1782   5.715   6.807   1.111  1.6361  0.6425  0.9202
  460WAT     H2 1783   5.848   6.744   1.075  2.2267  2.9120 -1.1263
  461WAT      O 1784   4.499   0.585   3.992  0.5152  0.1613  0.2819
  461WAT     H1 1785   4.549   0.569   3.911  1.6390 -0.0348  0.9977
  461WAT     H2 1786   4.477   0.678   3.988  0.2346  0.0726 -0.4272
  462WAT      O 1787   3.925   0.649   3.986  0.4489 -0.3268  0.1571
  462WAT     H1 1788   3.881   0.699   4.054  0.0275  1.1961 -1.1760
  462WAT     H2 1789   3.951   0.568   4.029 -0.9082  0.0476  1.7967
  463WAT      O 1790   6.879   3.733   4.180 -0.3295  0.8977  0.1179
  463WAT     H1 1791   6.837   3.814   4.149  0.4859  1.6521  0.9341
  463WAT     H2 1792   6.899   3.684   4.100  0.3844  2.1160 -0.4811
  464WAT      O 1793   1.618   1.490   5.436 -0.0382 -0.3005  0.2361
  464WAT     H1 1794   1.673   1.415   5.411 -0.8911 -1.9826  2.9634
  464WAT     H2 1795   1.533   1.470   5.397  0.3230  0.5346 -1.0472
  465WAT      O 1796   1.958   1.604   5.328  0.5641 -0.1447 -0.1232
  465WAT     H1 1797   1.904   1.636   5.400  0.2075 -0.2656 -0.3330
  465WAT     H2 1798   2.047   1.631   5.350  0.3490  0.5031 -0.0263
  466WAT      O 1799   2.138   1.832   4.220 -0.6057 -0.3902 -0.4045
  466WAT     H1 1800   2.233   1.815   4.225 -0.8389 -1.6223  0.1456
  466WAT     H2 1801   2.102   1.788   4.297 -1.7116 -0.4846 -0.9636
  467WAT      O 1802   4.618   4.469   0.369  0.3355  0.0292  0.1766
  467WAT     H1 1803   4.550   4.419   0.415 -0.9273  0.7365 -0.8337
  467WAT     H2 1804   4.700   4.434   0.403 -0.4856 -2.1401  0.1359
  468WAT      O 1805   0.287   4.745   2.623 -0.3220  0.4651  0.3668
  468WAT     H1 1806   0.194   4.726   2.607 -0.2616  1.8532 -2.0413
  468WAT     H2 1807   0.321   4.772   2.538  2.2837  0.1656  1.2333
  469WAT      O 1808   1.299   3.358   1.294  0.0898 -0.7247  0.2809
  469WAT     H1 1809   1.252   3.363   1.211 -0.4243  0.6235  0.6236
  469WAT     H2 1810   1.285   3.269   1.325  0.7327 -1.4122 -1.3137
  470WAT      O 1811   4.556   6.458   4.179 -0.1143 -0.2268 -0.3789
  470WAT     H1 1812   4.557   6.542   4.225 -1.6002 -0.5825  0.3449
  470WAT     H2 1813   4.593   6.477   4.092  2.0592  0.6054  0.6491
  471WAT      O 1814   3.707   2.984   2.521  1.0929 -0.0012 -0.0771
  471WAT     H1 1815   3.656   3.042   2.578  1.4035  3.8368 -3.2953
  471WAT     H2 1816   3.798   3.005   2.540  1.2378 -0.0928 -0.6429
  472WAT      O 1817   1.029   0.846   3.904  0.3414 -0.5938  0.5333
  472WAT     H1 1818   0.963   0.861   3.971  0.8549  1.0480  0.7325
  472WAT     H2 1819   1.079   0.770   3.935  1.5426  1.0086  2.8670
  473WAT      O 1820   1.341   5.931   2.080  0.1396  0.0787 -0.1553
  473WAT     H1 1821   1.315   5.895   1.995 -1.3369 -0.4538  0.5016
  473WAT     H2 1822   1.409   5.871   2.111 -0.4374 -0.6369 -0.2539
  474WAT      O 1823   1.438   6.582   3.934 -0.1888  0.2328 -0.5796
  474WAT     H1 1824   1.400   6.639   3.868  1.7879  0.6065 -1.4659
  474WAT     H2 1825   1.488   6.641   3.991  0.7597 -0.4378 -0.6900
  475WAT      O 1826   4.414   0.709   0.934  0.1569 -0.0723 -0.4725
  475WAT     H1 1827   4.365   0.702   1.016  1.5318  0.0818  0.4056
  475WAT     H2 1828   4.431   0.803   0.925  1.2705 -0.2175 -0.1220
  476WAT      O 1829   5.993   4.277   1.951  0.1645  0.2966  0.2788
  476WAT     H1 1830   6.004   4.210   2.018  0.4149 -0.4116 -0.4597
  476WAT     H2 1831   5.898   4.287   1.942  0.1263  0.0052  0.3571
  477WAT      O 1832   7.399   3.780   0.879 -0.1850 -0.2508 -0.2992
  477WAT     H1 1833   7.476   3.732   0.908 -1.3471 -2.0910 -0.0844
  477WAT     H2 1834   7.357   3.809   0.960  0.5884  1.3453 -0.4286
  478WAT      O 1835   2.107   2.662   5.593 -0.0621  0.4112  0.4474
  478WAT     H1 1836   2.194   2.639   5.562 -0.2920 -0.9749  0.7717
  478WAT     H2 1837   2.059   2.579   5.593 -1.3080  1.1174  0.5020
  479WAT      O 1838   0.843   3.927   5.759 -0.3697  0.3335  0.2090
  479WAT     H1 1839   0.766   3.934   5.816 -0.5371 -0.7366  0.1418
  479WAT     H2 1840   0.806   3.914   5.672 -0.1217  2.4586 -0.2710
  480WAT      O 1841   1.058   1.014   4.627  0.3503 -0.3626  0.2739
  480WAT     H1 1842   1.011   1.074   4.569 -0.0068 -1.1536 -0.2744
  480WAT     H2 1843   0.997   0.941   4.639  0.4965 -0.3019  1.4974
  481WAT      O 1844   7.471   6.353   6.139  0.1910 -0.0973  0.4182
  481WAT     H1 1845   7.422   6.327   6.061  4.6751 -1.8105 -2.1588
  481WAT     H2 1846   7.482   6.271   6.188  1.6976 -0.0985  0.1189
  482WAT      O 1847   1.632   5.234   3.250 -0.0967 -0.0574  0.5239
  482WAT     H1 1848   1.632   5.270   3.338 -0.1940 -1.4872  1.1377
  482WAT     H2 1849   1.551   5.267   3.210 -0.8094 -0.6049  1.4926
  483WAT      O 1850   7.258   3.263   0.857 -0.4586  0.0684 -0.0570
  483WAT     H1 1851   7.312   3.278   0.935  1.0184 -0.2201 -0.9885
  483WAT     H2 1852   7.191   3.201   0.886  0.7727 -0.9523  0.7175
  484WAT      O 1853   6.732   2.069   3.584 -0.0164  0.2102 -0.7111
  484WAT     H1 1854   6.762   1.980   3.603  2.4465  0.9413 -0.8133
  484WAT     H2 1855   6.659   2.084   3.644 -0.3765 -1.7937 -0.5909
  485WAT      O 1856   0.167   0.432   2.977 -0.0855  0.1147 -0.1221
  485WAT     H1 1857   0.095   0.390   3.024 -0.1842 -0.2218 -0.5692
  485WAT     H2 1858   0.244   0.379   2.997 -0.4683 -1.1634 -1.8373
  486WAT      O 1859   6.746   2.310   6.217 -0.5581  0.0202 -0.3196
  486WAT     H1 1860   6.827   2.260   6.218 -0.5960 -0.0401 -0.2724
  486WAT     H2 1861   6.726   2.324   6.310 -0.4500  0.2797 -0.3341
  487WAT      O 1862   5.617   6.155   2.100  0.2785  0.2454  0.1196
  487WAT     H1 1863   5.637   6.093   2.030  0.3953 -0.0915  0.4468
  487WAT     H2 1864   5.616   6.101   2.180 -0.3325  0.5403  0.3159
  488WAT      O 1865   3.901   0.105   5.956 -0.4554 -0.1008  0.4370
  488WAT     H1 1866   3.824   0.149   5.992 -0.6623  0.8626 -1.1191
  488WAT     H2 1867   3.887   0.012   5.976 -2.8274 -0.1642 -1.1687
  489WAT      O 1868   7.561   6.479   1.671 -0.6599 -0.0635 -0.0893
  489WAT     H1 1869   7.574   6.418   1.599  0.1652 -0.9229  0.7448
  489WAT     H2 1870   7.626   6.453   1.736 -0.1745  1.8063  0.2468
  490WAT      O 1871   5.871   3.298   0.432  0.6429 -0.0275  0.1636
  490WAT     H1 1872   5.809   3.292   0.505  0.7720 -0.9211  0.2108
  490WAT     H2 1873   5.873   3.391   0.410 -2.3673 -0.2012 -1.2569
  491WAT      O 1874   1.048   5.063   1.743 -0.3819 -0.3223  0.2267
  491WAT     H1 1875   0.960   5.081   1.775 -0.1186  0.0807  0.7226
  491WAT     H2 1876   1.098   5.142   1.762 -0.6581  0.7380 -2.8505
  492WAT      O 1877   3.409   1.932   1.080 -0.3880 -0.3493  0.0208
  492WAT     H1 1878   3.385   1.986   1.156  1.9473  2.0456 -0.7571
  492WAT     H2 1879   3.505   1.928   1.083 -0.3200 -1.6162 -1.8928
  493WAT      O 1880   5.766   3.672   3.993  0.1188 -0.2558  0.2578
  493WAT     H1 1881   5.768   3.635   4.081  1.3385 -0.7451  0.0448
  493WAT     H2 1882   5.808   3.757   4.001 -0.9551  0.2875  0.3759
  494WAT      O 1883   1.047   2.398   1.389  0.0590  0.2289  0.1269
  494WAT     H1 1884   1.047   2.428   1.480  2.3979 -0.8341  0.5542
  494WAT     H2 1885   1.069   2.305   1.394  0.5184  0.2131 -1.5349
  495WAT      O 1886   5.400   0.529   4.610  0.2276 -0.1010  0.1590
  495WAT     H1 1887   5.406   0.529   4.514  2.6775 -0.1918  0.2596
  495WAT     H2 1888   5.461   0.461   4.637  1.7124  1.8052  1.8644
  496WAT      O 1889   0.926   4.375   5.801  0.0091 -0.2996 -0.1538
  496WAT     H1 1890   0.835   4.377   5.772  0.1646 -0.1126 -0.6243
  496WAT     H2 1891   0.951   4.283   5.793 -0.2888 -0.4387  0.4502
  497WAT      O 1892   1.891   2.588   5.286 -0.1590  0.3452  0.3495
  497WAT     H1 1893   1.926   2.585   5.375 -0.0227 -0.3459  0.2849
  497WAT     H2 1894   1.969   2.593   5.230 -0.1256 -1.1817  0.2059
  498WAT      O 1895   2.753   4.042   0.983  0.4151 -0.5111 -0.0575
  498WAT     H1 1896   2.715   4.126   1.007 -0.1869 -0.1880 -1.9210
  498WAT     H2 1897   2.847   4.059   0.977  0.3902 -0.1968  0.3971
  499WAT      O 1898   0.651   6.169   5.355  0.1356 -0.2536 -0.6605
  499WAT     H1 1899   0.713   6.198   5.287  1.9516 -1.1334  0.5226
  499WAT     H2 1900   0.669   6.226   5.429 -2.4118  1.2522 -1.0838
  500WAT      O 1901   1.118   5.394   5.352  0.2382 -0.3820 -0.2954
  500WAT     H1 1902   1.193   5.406   5.410  0.2488  1.5358 -0.6294
  500WAT     H2 1903   1.152   5.416   5.265 -0.4612 -0.4909 -0.5989
  501WAT      O 1904   7.419   3.597   4.319 -0.1097 -0.7917 -0.8062
  501WAT     H1 1905   7.427   3.597   4.414  1.1554 -0.6831 -0.9000
  501WAT     H2 1906   7.330   3.566   4.303 -0.3022 -0.9231  0.4033
  502WAT      O 1907   5.848   6.368   2.502  0.1078 -0.4054 -0.4136
  502WAT     H1 1908   5.774   6.373   2.441  1.7542 -1.3730 -2.5808
  502WAT     H2 1909   5.820   6.303   2.567 -0.5447 -1.5822 -1.8216
  503WAT      O 1910   7.240   3.809   1.379 -0.4653 -0.2246 -0.3111
  503WAT     H1 1911   7.253   3.888   1.432 -0.1866 -0.3755 -0.1513
  503WAT     H2 1912   7.275   3.738   1.433  0.8209 -0.2487 -1.1232
  504WAT      O 1913   4.921  -0.004   2.894 -0.2327  1.2651  0.3913
  504WAT     H1 1914   4.862   0.023   2.824 -0.9898 -1.0335  0.0312
  504WAT     H2 1915   4.912   0.062   2.962 -1.9614  1.8417 -0.3656
  505WAT      O 1916   1.421   6.110   6.206  0.5053 -0.2819  0.0248
  505WAT     H1 1917   1.389   6.178   6.265  0.7986 -0.7806  0.7704
  505WAT     H2 1918   1.367   6.120   6.127  0.6676  0.9255  0.0417
  506WAT      O 1919   1.877   6.915   2.029 -0.0123 -0.7035  0.4557
  506WAT     H1 1920   1.953   6.951   2.074 -1.0946 -0.4151  2.1391
  506WAT     H2 1921   1.816   6.989   2.021 -1.0928 -1.4531  1.3642
  507WAT      O 1922   0.510   4.023   5.414  0.5712 -0.3701  0.3507
  507WAT     H1 1923   0.446   4.071   5.361  0.6553 -1.5180 -0.8469
  507WAT     H2 1924   0.502   4.061   5.502 -2.1796 -0.8746  0.4119
  508WAT      O 1925   4.337   2.814   2.440 -0.8006 -0.1727 -0.4957
  508WAT     H1 1926   4.353   2.788   2.531  0.3684  0.0882 -0.6061
  508WAT     H2 1927   4.343   2.909   2.441  2.1614 -0.2500 -1.3003
  509WAT      O 1928   3.829   3.572   1.068  0.1347  0.0383  0.3191
  509WAT     H1 1929   3.808   3.605   1.155 -1.0275 -1.2401  0.5572
  509WAT     H2 1930   3.914   3.611   1.047 -0.5401  2.0547  1.1171
  510WAT      O 1931   4.187   1.127   0.152 -0.6528  0.1231 -0.1024
  510WAT     H1 1932   4.128   1.174   0.211  2.0303  1.9654  1.3317
  510WAT     H2 1933   4.224   1.196   0.096 -1.8915 -1.3610 -2.9459
  511WAT      O 1934   0.448   2.099   5.757 -0.5414  0.2504  0.6052
  511WAT     H1 1935   0.458   2.124   5.849 -0.4987  2.4651  0.0558
  511WAT     H2 1936   0.467   2.005   5.755  0.0427  0.2818  2.7564
  512WAT      O 1937   0.662   5.289   1.982  0.1064 -0.3059  0.0086
  512WAT     H1 1938   0.602   5.328   1.918  1.4346 -0.3982 -1.3346
  512WAT     H2 1939   0.607   5.230   2.034 -1.3734  1.1698  0.2033
  513WAT      O 1940   0.685   3.880   4.528 -0.1114 -0.4259 -0.1128
  513WAT     H1 1941   0.700   3.841   4.442  1.0005 -1.8490  0.6830
  513WAT     H2 1942   0.770   3.914   4.555 -0.2842 -0.5992  0.6993
  514WAT      O 1943   2.080   1.329   2.763  0.1297 -0.5649  0.6919
  514WAT     H1 1944   2.017   1.392   2.728  0.9066  0.0749  0.4088
  514WAT     H2 1945   2.092   1.355   2.855  1.5743  0.6709  0.1922
  515WAT      O 1946   4.959   0.230   5.837 -0.1620 -0.1536 -0.5670
  515WAT     H1 1947   4.881   0.257   5.886  0.6495  1.6365 -0.1863
  515WAT     H2 1948   4.957   0.134   5.841 -2.8836 -0.2228 -1.4618
  516WAT      O 1949   4.431   0.080   1.436  0.0010  0.0397 -0.2580
  516WAT     H1 1950   4.477  -0.004   1.437 -0.7768 -0.3927  0.6934
  516WAT     H2 1951   4.365   0.070   1.367  1.6340  0.8754 -2.0521
  517WAT      O 1952   7.418   2.182   1.510 -0.5755 -0.1248  0.4672
  517WAT     H1 1953   7.335   2.157   1.550 -2.7270  2.8333 -1.6313
  517WAT     H2 1954   7.460   2.238   1.575 -1.4345  0.3220  0.6491
  518WAT      O 1955   2.376   4.506   3.551  0.3467 -0.3521  0.4850
  518WAT     H1 1956   2.352   4.418   3.524  0.7463 -1.0212  2.1529
  518WAT     H2 1957   2.408   4.548   3.471 -2.9829 -0.5330 -1.0913
  519WAT      O 1958   1.285   4.536   3.987  0.7004 -0.0354 -0.0100
  519WAT     H1 1959   1.226   4.463   4.005  0.2436  0.3414  0.0445
  519WAT     H2 1960   1.299   4.578   4.072  3.7866 -2.0882  0.6841
  520WAT      O 1961   7.251   5.203   2.562  0.0816  0.2444 -0.1435
  520WAT     H1 1962   7.222   5.167   2.646 -2.4838  2.8005  0.2091
  520WAT     H2 1963   7.346   5.209   2.570 -0.0251 -0.2799  2.2558
  521WAT      O 1964   1.924   1.483   4.329  0.0897 -0.1707  0.0787
  521WAT     H1 1965   1.876   1.426   4.389  1.0151  0.6185  1.6343
  521WAT     H2 1966   1.863   1.555   4.312 -0.1872 -0.4083  0.0512
  522WAT      O 1967   2.065   5.974   0.394 -0.3738  0.1194 -0.4177
  522WAT     H1 1968   2.079   5.989   0.488  2.1212 -0.8755 -0.5568
  522WAT     H2 1969   2.068   6.062   0.356 -2.9098  0.6999  0.5169
  523WAT      O 1970   5.145   5.274   6.213  0.2861 -0.8686 -0.0873
  523WAT     H1 1971   5.056   5.239   6.217 -0.2230  0.4347  0.4137
  523WAT     H2 1972   5.201   5.197   6.222 -0.7874 -1.6749 -0.1164
  524WAT      O 1973   1.296   0.228   4.245  0.0479  0.3467 -0.3615
  524WAT     H1 1974   1.237   0.171   4.295 -1.0527  0.4239 -1.5293
  524WAT     H2 1975   1.262   0.316   4.259  0.5074  0.5075 -0.2312
  525WAT      O 1976   5.324   6.386   1.184  0.2592 -0.4130  0.2623
  525WAT     H1 1977   5.319   6.373   1.089  0.7521 -0.1448  0.1981
  525WAT     H2 1978   5.236   6.364   1.215  0.4603 -1.8132 -0.0865
  526WAT      O 1979   4.345   4.278   2.288  0.1677 -0.1095  0.0803
  526WAT     H1 1980   4.347   4.349   2.223  1.1678 -1.7528 -1.8291
  526WAT     H2 1981   4.429   4.285   2.333  0.3076 -0.1152 -0.1731
  527WAT      O 1982   1.548   2.705   5.135  0.4674 -0.0017  0.3406
  527WAT     H1 1983   1.461   2.742   5.150 -0.3221 -1.6424  0.0011
  527WAT     H2 1984   1.577   2.675   5.221  0.9571  1.0317  0.5524
  528WAT      O 1985   4.591   2.444   1.584  0.1366  0.5865 -0.0598
  528WAT     H1 1986   4.674   2.396   1.573 -0.4226 -0.7184  1.0265
  528WAT     H2 1987   4.613   2.517   1.642  0.2031 -0.8776  1.8787
  529WAT      O 1988   4.168   4.714   5.106 -0.1005 -0.9260 -0.2820
  529WAT     H1 1989   4.176   4.695   5.199 -3.1568  1.4927  0.6337
  529WAT     H2 1990   4.077   4.696   5.085  0.4492 -1.1567 -2.7917
  530WAT      O 1991   4.397   3.588   1.983 -0.2960 -0.3211 -0.0893
  530WAT     H1 1992   4.361   3.665   1.938 -1.4729 -1.2940 -0.8991
  530WAT     H2 1993   4.411   3.616   2.073 -0.8247  0.7960 -0.3420
  531WAT      O 1994   1.211   4.470   6.126 -0.1507 -0.1114  0.0895
  531WAT     H1 1995   1.191   4.445   6.216  0.0808  1.2159  0.5273
  531WAT     H2 1996   1.302   4.445   6.113 -0.0039  0.2355  0.4307
  532WAT      O 1997   3.297   6.778   4.571  0.5329  0.3414  0.3884
  532WAT     H1 1998   3.240   6.855   4.571 -0.5993 -0.3753  2.9681
  532WAT     H2 1999   3.328   6.771   4.661  2.4039 -0.9871 -0.2961
  533WAT      O 2000   6.969   2.072   0.822  0.1015  0.2544 -0.2959
  533WAT     H1 2001   7.027   2.023   0.880  2.9720  1.4909 -1.8980
  533WAT     H2 2002   7.018   2.151   0.800 -1.1239  0.2293 -3.7337
  534WAT      O 2003   1.186   6.223   2.011  0.2266 -0.2272  0.5163
  534WAT     H1 2004   1.181   6.314   1.982  0.0305 -0.9776 -2.0522
  534WAT     H2 2005   1.101   6.206   2.052  0.0606  0.6156  0.5314
  535WAT      O 2006   1.074   6.818   2.765  0.0384 -0.0184  0.7245
  535WAT     H1 2007   1.051   6.909   2.784  0.1844 -0.3979  3.0275
  535WAT     H2 2008   1.166   6.822   2.736  0.8064  0.4195  3.0069
  536WAT      O 2009   0.775   5.790   5.048 -0.9593  0.3663  0.0470
  536WAT     H1 2010   0.790   5.779   5.142 -0.4746  2.1547  0.2109
  536WAT     H2 2011   0.857   5.825   5.014 -0.6752 -1.4993 -1.3084
  537WAT      O 2012   6.957   6.843   5.483  0.6115  0.0264  0.1486
  537WAT     H1 2013   7.015   6.909   5.444  0.0807  1.3232  1.4508
  537WAT     H2 2014   6.952   6.868   5.575 -0.2029 -1.4236  0.5188
  538WAT      O 2015   4.351   6.860   1.114  0.0816 -0.2159 -0.0160
  538WAT     H1 2016   4.350   6.944   1.160  0.1942  0.2265 -0.7952
  538WAT     H2 2017   4.282   6.869   1.048 -0.2120 -0.9090  0.1945
  539WAT      O 2018   7.319   5.815   0.781  0.3249  0.2281 -0.0519
  539WAT     H1 2019   7.286   5.733   0.745  0.8210  0.4191 -0.9901
  539WAT     H2 2020   7.328   5.872   0.705  0.2202  1.0691  0.5568
  540WAT      O 2021   2.594   6.257   3.626 -0.0290  0.1960 -0.4278
  540WAT     H1 2022   2.529   6.194   3.596 -0.7393  0.5987  0.2446
  540WAT     H2 2023   2.675   6.232   3.580 -0.3637 -1.0313 -0.3782
  541WAT      O 2024   1.761   1.259   1.486 -0.4580 -0.1768  0.2664
  541WAT     H1 2025   1.744   1.278   1.393  0.4455  0.2661  0.1731
  541WAT     H2 2026   1.748   1.164   1.494 -1.4304 -0.0813 -0.1039
  542WAT      O 2027   2.333   3.089   2.283 -0.3029  0.2466  0.1765
  542WAT     H1 2028   2.283   3.093   2.201  0.9161  0.7051 -0.5764
  542WAT     H2 2029   2.276   3.130   2.348 -1.0947  0.3318 -0.5509
  543WAT      O 2030   1.371   4.783   1.213 -0.2298 -0.4612  0.2128
  543WAT     H1 2031   1.323   4.841   1.273  1.6166  2.1014 -0.5930
  543WAT     H2 2032   1.457   4.774   1.253  1.0125  1.2258 -1.8576
  544WAT      O 2033   3.474   2.503   5.265  0.0023 -0.5214 -0.0114
  544WAT     H1 2034   3.444   2.511   5.175  1.7823 -0.6450 -0.6374
  544WAT     H2 2035   3.401   2.537   5.317  0.2052  2.8820 -1.6480
  545WAT      O 2036   3.409   4.818   3.958 -0.8486 -0.4227 -0.6283
  545WAT     H1 2037   3.498   4.853   3.946 -1.2971  0.0964 -2.9799
  545WAT     H2 2038   3.403   4.800   4.052  1.5688 -0.0204 -0.3186
  546WAT      O 2039   2.358   5.695   3.947  0.0144  0.2278 -0.0820
  546WAT     H1 2040   2.373   5.789   3.934  1.0577  0.0507 -0.1627
  546WAT     H2 2041   2.404   5.653   3.875 -1.1537 -0.3191 -0.5330
  547WAT      O 2042   5.698   5.308   5.358 -0.4578 -0.1300  0.2101
  547WAT     H1 2043   5.684   5.387   5.305  0.0651 -0.5127 -0.5233
  547WAT     H2 2044   5.777   5.326   5.408  0.4066 -0.6594 -0.9171
  548WAT      O 2045   7.634   5.549   1.116 -0.6259  0.4605 -0.4668
  548WAT     H1 2046   7.565   5.610   1.141 -0.9393 -0.1359  0.1599
  548WAT     H2 2047   7.607   5.465   1.154  0.9249  0.4126  0.6210
  549WAT      O 2048   4.224   4.847   5.619  0.2136 -0.0983  0.3588
  549WAT     H1 2049   4.217   4.785   5.547  0.3656  1.1762 -0.7831
  549WAT     H2 2050   4.200   4.931   5.581  0.0790  0.5745  1.8534
  550WAT      O 2051   2.054   5.942   1.265  0.1215  0.0965  0.0883
  550WAT     H1 2052   1.980   5.881   1.264  1.3124 -1.4323  0.9816
  550WAT     H2 2053   2.106   5.915   1.341  1.1643  1.6806 -0.0144
  551WAT      O 2054   2.753   5.333   4.677  0.2340 -0.3368 -0.1696
  551WAT     H1 2055   2.768   5.426   4.690  2.1654 -0.7757  1.2361
  551WAT     H2 2056   2.703   5.328   4.596 -1.8105  2.0016  0.8264
  552WAT      O 2057   5.173   4.039   5.048 -0.4591 -0.1429 -0.4717
  552WAT     H1 2058   5.196   4.117   5.098 -1.0613 -0.7282  0.7663
  552WAT     H2 2059   5.120   3.987   5.108  0.1948 -1.6628 -1.1633
  553WAT      O 2060   2.404   1.887   1.774 -0.3301 -0.2486  0.0529
  553WAT     H1 2061   2.464   1.813   1.764 -2.0898 -1.6914 -0.4400
  553WAT     H2 2062   2.390   1.894   1.868  0.9068  0.3925  0.2109
  554WAT      O 2063   3.719   2.071   3.070 -0.2085  0.1643 -0.2740
  554WAT     H1 2064   3.785   2.080   3.138  0.0061 -0.4816 -0.3883
  554WAT     H2 2065   3.724   1.979   3.043 -2.8102 -0.6054  1.4071
  555WAT      O 2066   3.077   6.287   5.521  0.6035 -0.0247  0.4416
  555WAT     H1 2067   3.097   6.208   5.572 -1.3163  0.0626  1.4206
  555WAT     H2 2068   3.056   6.353   5.587  0.1040  0.7002 -0.4242
  556WAT      O 2069   3.074   0.693   4.457  0.3971  0.0924  0.0896
  556WAT     H1 2070   3.092   0.658   4.544 -0.7119 -1.8804 -0.4055
  556WAT     H2 2071   2.994   0.745   4.468 -0.2054 -0.8162  0.1372
  557WAT      O 2072   4.484   1.354   2.153  0.2765 -0.6127  0.4818
  557WAT     H1 2073   4.476   1.441   2.193  0.2863  0.5200 -1.8227
  557WAT     H2 2074   4.438   1.362   2.070  3.7580 -1.4900 -1.7315
  558WAT      O 2075   4.876   3.822   4.560  0.4495 -0.3687  0.2349
  558WAT     H1 2076   4.787   3.787   4.548  0.4685 -0.5559  0.6253
  558WAT     H2 2077   4.879   3.847   4.652  0.2737  1.1089 -0.1391
  559WAT      O 2078   1.350   3.111   2.826  0.3375 -0.2884  1.0648
  559WAT     H1 2079   1.384   3.024   2.805  1.3341  0.6612 -1.6845
  559WAT     H2 2080   1.428   3.167   2.831 -0.4227  0.9016  0.1741
  560WAT      O 2081   1.031   6.540   5.794  0.3372 -0.2597  0.1845
  560WAT     H1 2082   0.989   6.618   5.830 -1.2941 -0.2352 -1.5777
  560WAT     H2 2083   1.027   6.476   5.864 -1.4494  0.2024  0.5585
  561WAT      O 2084   4.881   5.177   6.226 -0.2861  0.1273  0.0614
  561WAT     H1 2085   4.810   5.239   6.210 -0.4994  0.1299  0.9295
  561WAT     H2 2086   4.886   5.171   6.322 -0.7018 -1.6600  0.0118
  562WAT      O 2087   6.258   1.034   1.713  0.1473  0.4869  0.3033
  562WAT     H1 2088   6.269   1.083   1.794  0.5760 -0.1125  0.6186
  562WAT     H2 2089   6.169   0.999   1.718 -0.3589  1.6808 -0.1830
  563WAT      O 2090   3.183   4.667   1.620 -0.6257 -0.0998  0.1956
  563WAT     H1 2091   3.215   4.709   1.700 -0.8700 -3.2000  2.0906
  563WAT     H2 2092   3.089   4.686   1.620 -0.5623  0.2307  0.4522
  564WAT      O 2093   2.041   0.982   1.789  0.2215  0.3037 -0.1620
  564WAT     H1 2094   1.954   1.006   1.757 -0.7317 -2.6762 -0.1344
  564WAT     H2 2095   2.033   0.978   1.884  0.1774 -0.5474 -0.1888
  565WAT      O 2096   2.911   2.444   0.491 -0.0555 -0.1196 -0.0422
  565WAT     H1 2097   3.001   2.448   0.523  0.2218 -1.1850 -0.6471
  565WAT     H2 2098   2.861   2.407   0.564 -0.0477  0.6680  0.3684
  566WAT      O 2099   3.043   3.196   5.790  0.1104  0.1140  0.4253
  566WAT     H1 2100   2.962   3.207   5.742 -0.5890 -0.4356  1.4278
  566WAT     H2 2101   3.028   3.241   5.873 -0.1601 -2.1152  1.6721
  567WAT      O 2102   0.810   2.847   6.098  0.1718 -0.2938  0.4279
  567WAT     H1 2103   0.723   2.820   6.127 -0.4704  2.4610  1.3744
  567WAT     H2 2104   0.866   2.831   6.174  0.1923 -0.7029  0.3275
  568WAT      O 2105   6.292   2.700   5.528  0.5237  0.2486  0.5732
  568WAT     H1 2106   6.364   2.687   5.590  0.9199 -1.2996 -0.1714
  568WAT     H2 2107   6.287   2.618   5.480  1.5585  1.9948 -2.8428
  569WAT      O 2108   2.676   4.624   5.913 -0.0252  0.3321 -0.2400
  569WAT     H1 2109   2.629   4.706   5.931 -0.2086  0.1763 -0.0007
  569WAT     H2 2110   2.768   4.650   5.907 -0.2470  0.8226 -1.8490
  570WAT      O 2111   6.350   2.166   5.725 -0.2243  0.5669  0.3477
  570WAT     H1 2112   6.445   2.158   5.734 -0.2357 -0.4190 -0.3778
  570WAT     H2 2113   6.319   2.181   5.815  0.4247 -1.1374  0.8796
  571WAT      O 2114   4.343   2.993   1.731 -0.3741  0.1166 -0.0122
  571WAT     H1 2115   4.400   2.919   1.750  0.2375  0.6346  0.2252
  571WAT     H2 2116   4.354   3.051   1.807 -0.7822  0.4805 -0.2282
  572WAT      O 2117   5.350   5.696   5.203 -0.0666  0.1803  0.0912
  572WAT     H1 2118   5.344   5.660   5.292 -2.4867 -0.2358 -0.1682
  572WAT     H2 2119   5.357   5.791   5.216 -1.4097  0.2129  0.7588
  573WAT      O 2120   1.584   1.253   0.455  0.0874  0.0062 -0.6253
  573WAT     H1 2121   1.603   1.333   0.503  1.6145 -0.8177  0.2349
  573WAT     H2 2122   1.666   1.232   0.410 -0.6276 -0.4816 -1.7450
  574WAT      O 2123   4.047   3.360   3.409  0.3442  0.0578  0.1151
  574WAT     H1 2124   4.109   3.338   3.479 -0.2359  0.6712  0.8464
  574WAT     H2 2125   4.007   3.277   3.385 -0.1764 -0.0433  1.2357
  575WAT      O 2126   6.840   6.598   5.120 -0.6225 -0.7442  0.4015
  575WAT     H1 2127   6.873   6.508   5.116  0.4990 -0.3143 -0.6151
  575WAT     H2 2128   6.774   6.596   5.189  0.3511 -2.0380  1.3495
  576WAT      O 2129   0.748   1.968   5.858  0.7656 -0.9131  0.1877
  576WAT     H1 2130   0.690   1.893   5.870 -0.0254 -0.5663 -1.2576
  576WAT     H2 2131   0.819   1.954   5.922 -0.1698 -2.0610  1.0224
  577WAT      O 2132   0.246   6.438   5.057  0.0395  0.0008 -0.1162
  577WAT     H1 2133   0.201   6.518   5.030  1.6838  0.5976 -1.2900
  577WAT     H2 2134   0.333   6.468   5.083 -0.1778 -1.0970  2.1112
  578WAT      O 2135   1.491   0.103   2.692 -0.0406  0.3213 -0.6432
  578WAT     H1 2136   1.570   0.055   2.666  0.1244  0.3018 -0.1151
  578WAT     H2 2137   1.492   0.181   2.637  0.3819  0.3529 -0.5960
  579WAT      O 2138   3.469   4.782   2.033 -0.1415 -0.1832  0.0389
  579WAT     H1 2139   3.466   4.874   2.008 -0.2141  0.1561  1.2371
  579WAT     H2 2140   3.559   4.755   2.014  0.8568  1.0332  2.5721
  580WAT      O 2141   0.514   4.627   3.699 -0.0653 -0.2709  0.6209
  580WAT     H1 2142   0.553   4.663   3.620 -0.0228 -0.0253  0.7515
  580WAT     H2 2143   0.427   4.668   3.704  0.4128  0.6991  1.3712
  581WAT      O 2144   0.142   1.922   4.409 -0.0174 -0.3977  0.2845
  581WAT     H1 2145   0.105   1.883   4.330  0.3942 -0.4254  0.1008
  581WAT     H2 2146   0.108   2.012   4.410  0.4348 -0.2109 -0.2413
  582WAT      O 2147   2.069   3.714   5.181 -0.3354 -0.1930  0.0922
  582WAT     H1 2148   2.158   3.679   5.182 -0.2982 -0.1225 -0.5271
  582WAT     H2 2149   2.021   3.658   5.242  0.8197  1.6904  2.9503
  583WAT      O 2150   4.069   1.883   4.120  0.0518  0.1808 -0.0291
  583WAT     H1 2151   4.030   1.941   4.186  0.6164  0.2083  0.2840
  583WAT     H2 2152   4.155   1.920   4.103 -0.7911  1.2901 -2.2132
  584WAT      O 2153   5.369   3.420   4.876  0.0407  0.3577  0.2136
  584WAT     H1 2154   5.396   3.484   4.942 -0.4026 -0.1209  0.8688
  584WAT     H2 2155   5.307   3.363   4.922  0.8972 -0.9192 -0.1868
  585WAT      O 2156   1.418   5.446   2.089  0.2912  0.0026 -0.4331
  585WAT     H1 2157   1.506   5.412   2.101  0.4480  0.5523  0.0281
  585WAT     H2 2158   1.368   5.410   2.162  0.4922  0.8580  0.1373
  586WAT      O 2159   6.523   1.067   3.437 -0.0534  0.3838  0.7284
  586WAT     H1 2160   6.493   1.115   3.515 -2.4102 -0.4652  0.4070
  586WAT     H2 2161   6.480   0.982   3.443  1.7602 -0.6609 -0.2226
  587WAT      O 2162   0.819   2.539   2.615  0.6061 -0.3382  0.2423
  587WAT     H1 2163   0.749   2.498   2.666  1.4799  0.5005  2.2055
  587WAT     H2 2164   0.900   2.512   2.659  1.2967  2.1300  0.6545
  588WAT      O 2165   4.131   2.046   2.468 -0.2019  0.3689 -0.1326
  588WAT     H1 2166   4.116   2.013   2.379  1.0645  0.6671 -0.4907
  588WAT     H2 2167   4.172   2.132   2.454  2.5651 -0.7172  0.6322
  589WAT      O 2168   6.831   1.801   0.196 -0.2778 -0.3708 -0.3127
  589WAT     H1 2169   6.895   1.837   0.135 -1.0049 -0.7659 -1.3424
  589WAT     H2 2170   6.880   1.789   0.278  0.6796  0.3068 -0.7654
  590WAT      O 2171   1.710   3.382   3.326 -0.2165  0.2855  0.0274
  590WAT     H1 2172   1.668   3.356   3.408 -1.1718  1.7599  0.0275
  590WAT     H2 2173   1.803   3.390   3.348 -0.6045  1.6911  1.2451
  591WAT      O 2174   3.351   5.464   2.957 -0.1634  0.4142  0.1339
  591WAT     H1 2175   3.443   5.454   2.932 -0.5417  0.8386 -1.5530
  591WAT     H2 2176   3.333   5.556   2.944 -0.5618  0.5593  1.5499
  592WAT      O 2177   3.107   1.992   0.878  0.3002  0.0785 -0.1817
  592WAT     H1 2178   3.140   1.904   0.862  0.0707  0.0769 -0.6602
  592WAT     H2 2179   3.042   1.982   0.947 -0.7464 -0.3463 -1.1938
  593WAT      O 2180   0.006   2.558   4.849 -0.4049  0.1844  0.0138
  593WAT     H1 2181   0.065   2.545   4.775  1.8515  2.5585  1.2229
  593WAT     H2 2182   0.061   2.547   4.926 -1.6488  1.8989  1.2165
  594WAT      O 2183   6.052   3.730   5.375  0.1883  0.1706 -0.2566
  594WAT     H1 2184   6.085   3.797   5.315  1.8759 -1.0287 -0.7519
  594WAT     H2 2185   6.118   3.726   5.445  0.5333 -1.4210 -0.6128
  595WAT      O 2186   5.155   3.082   5.506 -0.1057  0.0944 -0.2506
  595WAT     H1 2187   5.126   3.164   5.545 -1.0420 -0.4590  0.2759
  595WAT     H2 2188   5.166   3.022   5.580  1.4301 -0.0281 -0.5394
  596WAT      O 2189   2.123   7.072   0.418  0.4771 -0.1043  0.1582
  596WAT     H1 2190   2.153   7.149   0.371  2.1581  0.0058  1.3234
  596WAT     H2 2191   2.162   7.081   0.506 -1.4932 -0.9287  1.1772
  597WAT      O 2192   7.568   1.542   4.765  0.0368 -0.3457  0.3162
  597WAT     H1 2193   7.515   1.470   4.798  0.7186  0.3332  3.1512
  597WAT     H2 2194   7.508   1.594   4.711 -1.4256 -1.0557  1.2111
  598WAT      O 2195   5.184   0.510   5.526  0.0490 -0.5850  0.2680
  598WAT     H1 2196   5.169   0.419   5.500  0.2612 -0.5820  0.1347
  598WAT     H2 2197   5.129   0.522   5.603 -0.6275 -0.5732 -0.2133
  599WAT      O 2198   1.484   1.869   4.957  0.5046  0.0044 -0.1561
  599WAT     H1 2199   1.426   1.945   4.954  1.0501  0.4606  0.3269
  599WAT     H2 2200   1.433   1.797   4.920 -0.6992  0.1681  1.1021
  600WAT      O 2201   2.157   0.551   0.829  0.6208  0.0652  0.1261
  600WAT     H1 2202   2.213   0.480   0.859  1.7077  0.8994  0.1024
  600WAT     H2 2203   2.123   0.591   0.909  1.8586  0.9673  0.2262
  601WAT      O 2204   5.604   2.578   1.268  0.6869  0.1683  0.1410
  601WAT     H1 2205   5.583   2.653   1.213  0.5053  0.5395  0.7091
  601WAT     H2 2206   5.629   2.509   1.206  0.5892  0.6089 -0.3967
  602WAT      O 2207   0.514   4.599   2.728  0.6414 -0.2329 -0.1793
  602WAT     H1 2208   0.436   4.648   2.700  0.3773 -0.3512  0.3296
  602WAT     H2 2209   0.585   4.633   2.674  0.1660 -0.3787 -0.9057
  603WAT      O 2210   5.824   5.669   0.685  0.2462 -0.1246 -0.2062
  603WAT     H1 2211   5.741   5.627   0.706 -0.1426  0.5203 -0.4430
  603WAT     H2 2212   5.874   5.601   0.639 -0.9877  0.1043 -2.0175
  604WAT      O 2213   4.626   4.906   1.910  0.0281 -0.5724  0.2731
  604WAT     H1 2214   4.588   4.992   1.895  0.3517 -0.6569 -1.1552
  604WAT     H2 2215   4.591   4.879   1.995 -2.1372 -0.1415 -0.4277
  605WAT      O 2216   1.906   5.356   2.056 -0.5701  0.2181 -0.4211
  605WAT     H1 2217   1.961   5.282   2.030 -0.2728  0.3538 -0.1747
  605WAT     H2 2218   1.945   5.389   2.137  0.1048  1.4968 -1.2392
  606WAT      O 2219   7.143   3.434   4.216  0.0049 -0.3752  0.1677
  606WAT     H1 2220   7.153   3.389   4.132  3.6431  0.9210 -0.2480
  606WAT     H2 2221   7.182   3.374   4.280  3.8218  1.3994 -0.2318
  607WAT      O 2222   0.399   1.848   2.862  0.1876  0.3946 -0.5894
  607WAT     H1 2223   0.405   1.908   2.936  0.1525  1.3253 -1.3172
  607WAT     H2 2224   0.366   1.766   2.899 -0.5205  1.0672  0.3017
  608WAT      O 2225   2.375   7.074   3.861  0.0938 -0.3723  0.3322
  608WAT     H1 2226   2.366   6.981   3.840  1.2006 -0.4476  0.1392
  608WAT     H2 2227   2.313   7.117   3.801 -0.9211 -1.0132  0.8834
  609WAT      O 2228   3.251   1.800   3.018 -0.4563  0.0851  0.2749
  609WAT     H1 2229   3.303   1.721   3.033 -1.4376 -0.2915  1.9003
  609WAT     H2 2230   3.304   1.871   3.052 -0.3416 -0.1001  0.4860
  610WAT      O 2231   1.959   3.778   3.612  0.0237 -0.2921  0.3453
  610WAT     H1 2232   2.017   3.754   3.540  0.8704 -0.7226  1.1419
  610WAT     H2 2233   1.927   3.694   3.645 -1.2274 -0.0561 -0.1982
  611WAT      O 2234   3.788   0.928   4.050 -0.7094 -0.0480 -0.4394
  611WAT     H1 2235   3.786   0.884   4.135 -2.0108 -0.4057 -0.6209
  611WAT     H2 2236   3.706   0.978   4.048  0.3460  1.7367 -0.5844
  612WAT      O 2237   6.229   1.816   0.828  0.3639  0.1961  0.4359
  612WAT     H1 2238   6.223   1.869   0.907 -0.4107 -1.6746  1.7015
  612WAT     H2 2239   6.239   1.726   0.860 -0.4314 -0.6732 -1.5938
  613WAT      O 2240   3.667   6.938   0.378 -0.7229 -0.3501 -0.2601
  613WAT     H1 2241   3.594   6.877   0.379 -0.2227 -0.9750 -0.9333
  613WAT     H2 2242   3.745   6.883   0.377 -0.2689  0.2705 -1.5282
  614WAT      O 2243   4.424   2.413   3.422  0.0162  0.0841  0.2410
  614WAT     H1 2244   4.383   2.354   3.359 -1.2740  0.8019  0.3912
  614WAT     H2 2245   4.434   2.359   3.501 -0.3810 -0.1713  0.1191
  615WAT      O 2246   5.852   6.943   5.732  0.4328  0.0223  0.0711
  615WAT     H1 2247   5.760   6.953   5.757  0.9595  1.0656  1.7896
  615WAT     H2 2248   5.861   6.997   5.653 -0.0521  1.4213  0.9266
  616WAT      O 2249   5.082   5.062   4.862  0.1880  0.3629 -0.6437
  616WAT     H1 2250   5.112   5.126   4.926  0.5739  1.1186 -1.5615
  616WAT     H2 2251   5.034   4.997   4.914  0.9514  0.6561  0.4766
  617WAT      O 2252   1.137   4.317   1.558 -0.1049  0.2409 -0.5506
  617WAT     H1 2253   1.066   4.297   1.619 -0.4754 -1.8573 -1.6048
  617WAT     H2 2254   1.207   4.256   1.582  1.6931  2.6385  0.8501
  618WAT      O 2255   6.424   2.391   0.614  0.1526  0.5922  0.4180
  618WAT     H1 2256   6.475   2.314   0.589 -1.3958 -0.8982  1.6557
  618WAT     H2 2257   6.371   2.363   0.689  2.1760  3.8562  3.4491
  619WAT      O 2258   6.064   4.789   4.419 -0.0817 -0.9532  0.3879
  619WAT     H1 2259   6.150   4.811   4.383 -0.8334  0.6509 -0.5231
  619WAT     H2 2260   6.007   4.784   4.342 -1.6354  2.1049  1.1955
  620WAT      O 2261   5.001   3.310   1.905 -0.1544 -0.3514  0.6076
  620WAT     H1 2262   4.988   3.357   1.988 -1.1602  0.2344  0.1376
  620WAT     H2 2263   5.032   3.378   1.844 -0.3441 -0.5723  0.2611
  621WAT      O 2264   7.331   6.705   0.864  0.6493  0.1106  0.2520
  621WAT     H1 2265   7.397   6.679   0.928 -0.5343 -0.0803  1.4366
  621WAT     H2 2266   7.250   6.665   0.896  0.1277 -0.5122 -1.7105
  622WAT      O 2267   0.626   5.725   4.792  0.3019 -0.8906 -0.5016
  622WAT     H1 2268   0.612   5.632   4.811 -1.3813 -0.7725 -0.9661
  622WAT     H2 2269   0.632   5.766   4.879  0.9532 -1.4101 -0.2929
  623WAT      O 2270   5.812   5.798   4.862 -0.7144 -0.5557  0.0673
  623WAT     H1 2271   5.828   5.892   4.871 -0.3823 -0.7285  1.8547
  623WAT     H2 2272   5.717   5.789   4.869 -0.8141 -0.3011 -0.8785
  624WAT      O 2273   7.407   2.080   4.453  0.1054  0.6988 -0.2833
  624WAT     H1 2274   7.489   2.063   4.500 -1.2664 -0.3983  1.8666
  624WAT     H2 2275   7.383   2.169   4.478  0.5074  0.9435 -0.7463
  625WAT      O 2276   4.771   6.963   4.343  0.7062  0.9051  0.3283
  625WAT     H1 2277   4.841   6.900   4.328  0.3586  0.4661  0.5185
  625WAT     H2 2278   4.772   6.978   4.438 -0.6612 -0.5487  0.6150
  626WAT      O 2279   2.462   4.998   5.634  0.7722 -0.0921  0.0287
  626WAT     H1 2280   2.500   4.972   5.550  1.6626 -0.1011  0.4207
  626WAT     H2 2281   2.447   4.915   5.680 -2.9492 -0.4107 -1.3888
  627WAT      O 2282   1.035   7.021   0.548  0.5102 -0.0148  0.1427
  627WAT     H1 2283   0.997   6.995   0.631 -0.9350 -1.5892 -0.9434
  627WAT     H2 2284   0.969   7.079   0.509  0.9217  0.2604 -0.1521
  628WAT      O 2285   2.261   6.494   4.243  0.0219  0.5545  0.1375
  628WAT     H1 2286   2.255   6.469   4.151 -0.0512 -1.0755  0.5463
  628WAT     H2 2287   2.323   6.566   4.244 -1.8630  2.3240 -1.4624
  629WAT      O 2288   7.478   2.786   2.667  0.3015  0.1166 -0.2037
  629WAT     H1 2289   7.551   2.755   2.721 -0.4394 -1.1649  0.1004
  629WAT     H2 2290   7.407   2.724   2.685 -0.7653  1.1551 -0.7353
  630WAT      O 2291   6.141   2.992   2.608  0.2697  0.5658  0.1889
  630WAT     H1 2292   6.119   3.064   2.668  1.2080  0.2100  1.0001
  630WAT     H2 2293   6.060   2.943   2.597  0.4357 -0.4237  2.6637
  631WAT      O 2294   4.594   4.446   4.390  0.8064 -0.5663 -0.0236
  631WAT     H1 2295   4.531   4.445   4.462  1.2847 -0.6440  0.4069
  631WAT     H2 2296   4.678   4.425   4.432  1.1806 -0.0910 -0.5149
  632WAT      O 2297   6.808   6.775   4.244  0.3578  0.0447 -0.0073
  632WAT     H1 2298   6.795   6.701   4.305 -1.0733  0.2440 -0.0562
  632WAT     H2 2299   6.902   6.775   4.228  0.6921 -0.4373  1.6885
  633WAT      O 2300   1.452   4.387   2.892  0.4225 -0.4109 -0.2653
  633WAT     H1 2301   1.523   4.346   2.844  0.4209 -0.5919 -0.1113
  633WAT     H2 2302   1.406   4.315   2.934 -0.0140 -0.3207 -0.5825
  634WAT      O 2303   3.805   3.158   3.503 -0.2860 -0.4786  0.3826
  634WAT     H1 2304   3.761   3.083   3.542 -0.1261 -0.4536  0.6107
  634WAT     H2 2305   3.885   3.169   3.554 -1.1384  0.9250  1.5153
  635WAT      O 2306   6.602   5.521   0.573  0.0715 -0.2475  0.3999
  635WAT     H1 2307   6.695   5.497   0.572 -0.0510 -0.7179  0.4974
  635WAT     H2 2308   6.557   5.443   0.603 -0.3031  0.1875  0.9735
  636WAT      O 2309   0.492   3.146   0.041  0.3642  0.1126  0.2113
  636WAT     H1 2310   0.407   3.155  -0.002  0.1451  1.9637  0.9564
  636WAT     H2 2311   0.476   3.086   0.113  0.2645 -1.3972 -1.0167
  637WAT      O 2312   0.913   0.605   1.775  0.1569  0.3777 -0.1580
  637WAT     H1 2313   0.937   0.691   1.810 -0.1073  0.8476 -1.1069
  637WAT     H2 2314   0.850   0.570   1.838  0.3278  0.8403  0.2785
  638WAT      O 2315   1.164   6.917   5.235  0.3363  0.0629 -0.4928
  638WAT     H1 2316   1.240   6.866   5.208  0.6675  0.1075  0.3111
  638WAT     H2 2317   1.163   6.993   5.177  0.3132 -0.4437 -1.1613
  639WAT      O 2318   3.296   1.053   0.987 -0.4553 -0.9015 -0.0448
  639WAT     H1 2319   3.231   1.079   1.052  0.0384 -1.8133  0.8215
  639WAT     H2 2320   3.359   1.125   0.987 -1.5314  0.1127 -1.0653
  640WAT      O 2321   7.561   6.912   1.309 -0.5157 -0.2698  0.0700
  640WAT     H1 2322   7.582   6.861   1.386  0.6826 -0.1790 -0.1810
  640WAT     H2 2323   7.540   6.847   1.242 -0.6664 -0.3758  0.2191
  641WAT      O 2324   1.195   5.702   3.102 -0.4179 -0.2227  0.2300
  641WAT     H1 2325   1.198   5.666   3.191  0.5892 -0.4820  0.1045
  641WAT     H2 2326   1.274   5.755   3.095 -0.2017 -0.6479 -0.6960
  642WAT      O 2327   2.979   6.978   0.736  0.2097  0.0429 -0.6719
  642WAT     H1 2328   3.075   6.980   0.740  0.1640  1.0310  1.6401
  642WAT     H2 2329   2.957   6.887   0.757  0.6247  0.1224  0.1459
  643WAT      O 2330   3.900   6.106   1.518  0.1582  0.5723 -0.4178
  643WAT     H1 2331   3.857   6.021   1.529 -0.0586  0.5964 -1.0728
  643WAT     H2 2332   3.836   6.169   1.550  0.2208  0.5124 -0.1699
  644WAT      O 2333   6.370   5.500   5.182  0.0176  0.1579 -0.0586
  644WAT     H1 2334   6.310   5.569   5.209  0.2631 -0.6736  3.1053
  644WAT     H2 2335   6.316   5.437   5.134 -1.9309 -0.8013  3.0899
  645WAT      O 2336   1.414   6.411   1.837 -0.0106  0.3000 -0.6150
  645WAT     H1 2337   1.461   6.431   1.918 -1.4321  0.0348  0.3074
  645WAT     H2 2338   1.322   6.427   1.858 -0.5990 -1.5547 -1.6001
  646WAT      O 2339   3.752   5.961   0.073  0.1821  0.4952  0.0464
  646WAT     H1 2340   3.817   5.907   0.029  0.7648  0.7109  0.6130
  646WAT     H2 2341   3.732   5.914   0.154 -0.4647  0.3705 -0.1802
  647WAT      O 2342   1.872   6.600   2.230 -0.5309 -0.7969 -0.1864
  647WAT     H1 2343   1.838   6.596   2.320 -0.3365 -0.9828 -0.1179
  647WAT     H2 2344   1.813   6.659   2.184 -0.4657 -0.4773  0.1384
  648WAT      O 2345   5.521   6.492   6.049  0.0213 -0.3445 -0.8513
  648WAT     H1 2346   5.480   6.427   5.992  1.1190  1.3377 -3.7978
  648WAT     H2 2347   5.606   6.454   6.072 -0.4837 -1.0949 -0.1959
  649WAT      O 2348   1.483   3.335   5.681  0.2784 -0.3651  0.1989
  649WAT     H1 2349   1.417   3.318   5.613  1.5910  0.9120 -1.4633
  649WAT     H2 2350   1.488   3.430   5.686 -0.4110 -0.3930  2.8014
  650WAT      O 2351   2.216   5.360   2.837 -0.0852 -0.0691 -0.0913
  650WAT     H1 2352   2.239   5.433   2.893  0.7653  0.4512 -1.0768
  650WAT     H2 2353   2.181   5.400   2.757  1.2451 -0.6644 -1.0231
  651WAT      O 2354   0.377   2.502   4.888 -0.1955 -0.1225 -0.3543
  651WAT     H1 2355   0.417   2.444   4.953  1.7514  1.2027 -0.2460
  651WAT     H2 2356   0.358   2.582   4.938  1.2539  0.8826 -1.3266
  652WAT      O 2357   3.195   5.207   5.405  0.1883 -0.0223  0.3610
  652WAT     H1 2358   3.272   5.224   5.459  1.5191  1.7584 -1.9439
  652WAT     H2 2359   3.128   5.265   5.440 -0.3292 -1.7994  2.5770
  653WAT      O 2360   5.573   3.328   2.246 -0.5907 -0.6185  0.4153
  653WAT     H1 2361   5.499   3.378   2.281 -0.5304 -0.0577 -0.2300
  653WAT     H2 2362   5.549   3.311   2.154  0.8536  1.1621 -0.3495
  654WAT      O 2363   1.633   6.617   3.516 -0.2414  0.4016 -0.6974
  654WAT     H1 2364   1.563   6.599   3.453 -3.4016  3.2408  1.6765
  654WAT     H2 2365   1.712   6.587   3.471 -2.8459 -3.3040 -3.4933
  655WAT      O 2366   5.110   6.234   3.522 -0.1526  0.2248  0.2321
  655WAT     H1 2367   5.123   6.280   3.605 -0.2686  1.7410 -0.5534
  655WAT     H2 2368   5.032   6.275   3.484  1.1274  1.1143 -1.6196
  656WAT      O 2369   3.852   5.172   2.949 -0.6244  0.1264  0.0974
  656WAT     H1 2370   3.810   5.257   2.961  0.4636  1.1058 -2.2743
  656WAT     H2 2371   3.870   5.141   3.038 -1.3876  2.1965  1.0347
  657WAT      O 2372   0.398   5.728   3.147 -0.2625 -0.6022  1.0940
  657WAT     H1 2373   0.445   5.673   3.084  0.6272  0.2578  0.9872
  657WAT     H2 2374   0.445   5.716   3.229 -0.0769 -0.0359  1.0770
  658WAT      O 2375   0.337   4.524   5.554 -0.0083  0.1740  0.2666
  658WAT     H1 2376   0.391   4.535   5.632 -0.2140 -2.1056  0.8060
  658WAT     H2 2377   0.278   4.600   5.554 -1.2493 -0.6577  3.3866
  659WAT      O 2378   6.005   0.039   1.719  0.0170  0.0733 -0.2082
  659WAT     H1 2379   6.053   0.090   1.654  1.4096 -0.9118 -0.0072
  659WAT     H2 2380   6.057  -0.041   1.730 -1.3430 -0.7525  0.5252
  660WAT      O 2381   1.978   1.958   5.857 -0.0056 -0.2598  0.0218
  660WAT     H1 2382   1.906   1.895   5.846 -0.6597  0.5306 -0.2593
  660WAT     H2 2383   1.959   2.002   5.939  0.5415 -0.5271  0.2977
  661WAT      O 2384   0.696   3.405   3.065  0.0355  0.0435 -0.7032
  661WAT     H1 2385   0.681   3.335   3.128 -0.4835  1.4552  0.8079
  661WAT     H2 2386   0.791   3.416   3.065 -0.0762  2.3517  2.6123
  662WAT      O 2387   6.887   2.859   1.695  0.6643  0.2999  0.5084
  662WAT     H1 2388   6.839   2.936   1.728 -0.2370 -0.4027  0.8755
  662WAT     H2 2389   6.929   2.891   1.615  0.9965  1.3998  1.0888
  663WAT      O 2390   5.752   6.490   4.420  0.4540 -0.6366 -0.6788
  663WAT     H1 2391   5.698   6.521   4.493  0.4074  0.8520 -1.3123
  663WAT     H2 2392   5.720   6.402   4.402  0.9210 -1.3258  1.5209
  664WAT      O 2393   6.506   1.031   5.148 -0.1023  0.1153 -0.3634
  664WAT     H1 2394   6.497   0.965   5.217 -1.5418 -2.0859 -2.5149
  664WAT     H2 2395   6.569   1.094   5.184  0.9619 -2.1066  2.0239
  665WAT      O 2396   1.847   5.159   0.973  0.0809 -0.2392 -0.0753
  665WAT     H1 2397   1.932   5.201   0.958  0.0183 -0.4918 -1.2570
  665WAT     H2 2398   1.867   5.065   0.978 -0.0559 -0.2512  0.2872
  666WAT      O 2399   4.654   5.244   3.889 -0.4339 -0.0729  0.0091
  666WAT     H1 2400   4.561   5.229   3.906 -0.3459 -0.2827  0.3350
  666WAT     H2 2401   4.669   5.335   3.914 -0.3420 -0.3324  0.9452
  667WAT      O 2402   3.182   2.859   2.172  0.1885 -0.2773  0.0320
  667WAT     H1 2403   3.096   2.898   2.181  0.2539 -0.0309 -0.4005
  667WAT     H2 2404   3.221   2.865   2.260 -0.2244 -0.3803  0.2232
  668WAT      O 2405   7.599   1.182   1.980 -0.2897 -0.5354 -0.3322
  668WAT     H1 2406   7.636   1.153   2.064 -0.5510 -0.8847 -0.3329
  668WAT     H2 2407   7.609   1.106   1.922 -1.5826 -0.8810 -0.1449
  669WAT      O 2408   5.549   6.182   4.135 -0.0965  0.0919  0.1362
  669WAT     H1 2409   5.560   6.205   4.227  1.7369  0.6100 -0.1797
  669WAT     H2 2410   5.464   6.219   4.111  0.2557  1.6380  1.1362
  670WAT      O 2411   0.992   0.969   5.957  0.0637  0.2996 -0.6193
  670WAT     H1 2412   0.953   1.056   5.951  0.9066  0.9123  1.5496
  670WAT     H2 2413   1.053   0.964   5.883 -1.0813  0.9318 -1.6324
  671WAT      O 2414   4.835   0.272   0.855 -1.5260  0.4196  0.0924
  671WAT     H1 2415   4.905   0.212   0.829 -1.4241 -0.4529  2.1738
  671WAT     H2 2416   4.777   0.276   0.779 -0.0786 -0.0984 -1.0973
  672WAT      O 2417   6.535   2.099   5.308  0.0167  0.2845 -0.5056
  672WAT     H1 2418   6.584   2.072   5.386 -0.2223  3.0183  0.7067
  672WAT     H2 2419   6.456   2.140   5.343  0.0610  1.8962 -2.1411
  673WAT      O 2420   0.078   0.992   1.353 -0.2990 -0.3239 -0.7487
  673WAT     H1 2421   0.040   0.925   1.409  1.4168  0.6498  1.7604
  673WAT     H2 2422   0.154   0.951   1.313 -0.0827 -0.3076 -0.3586
  674WAT      O 2423   1.530   5.167   2.510 -0.0013 -0.6043 -0.2205
  674WAT     H1 2424   1.547   5.205   2.424  0.3762 -0.0426  0.0968
  674WAT     H2 2425   1.551   5.074   2.499 -0.0968 -0.5667 -0.7701
  675WAT      O 2426   2.963   0.227   3.155  0.1618 -0.1619 -0.1263
  675WAT     H1 2427   2.967   0.176   3.236 -0.2185 -1.1350 -0.6998
  675WAT     H2 2428   2.869   0.243   3.142  0.3393  1.6091  0.5905
  676WAT      O 2429   7.434   3.453   2.742  0.2571  0.8593 -0.0868
  676WAT     H1 2430   7.524   3.435   2.715 -0.3742 -0.7294 -1.2677
  676WAT     H2 2431   7.442   3.488   2.831  2.0650  1.2930 -0.3932
  677WAT      O 2432   3.711   1.476   1.863  0.3416  0.2208 -0.2475
  677WAT     H1 2433   3.630   1.430   1.840  0.7509 -0.8731  0.4388
  677WAT     H2 2434   3.693   1.568   1.842 -0.8097 -0.1117 -0.8034
  678WAT      O 2435   0.196   4.627   1.039 -0.6117  0.2618  0.1700
  678WAT     H1 2436   0.103   4.625   1.063 -1.1213 -0.7336 -1.6835
  678WAT     H2 2437   0.224   4.536   1.044 -0.1423  0.3470 -0.7198
  679WAT      O 2438   0.592   6.625   2.114 -0.2916 -0.3475 -0.0865
  679WAT     H1 2439   0.624   6.656   2.199  0.0786 -0.6909 -0.0998
  679WAT     H2 2440   0.549   6.702   2.076 -0.3113 -0.1442  0.3373
  680WAT      O 2441   4.303   3.452   0.583  0.2096 -0.0550 -0.0113
  680WAT     H1 2442   4.258   3.518   0.530 -0.3142 -0.9177 -0.6715
  680WAT     H2 2443   4.290   3.481   0.674 -0.7333  0.3003 -0.2509
  681WAT      O 2444   2.302   4.548   5.500 -0.0136  0.0984 -0.6494
  681WAT     H1 2445   2.309   4.460   5.463  0.3806 -0.0992 -0.1076
  681WAT     H2 2446   2.336   4.540   5.589 -0.5478  0.6686 -0.3896
  682WAT      O 2447   5.106   3.211   1.026 -0.1000 -0.2827  0.0564
  682WAT     H1 2448   5.196   3.184   1.010  0.3953  1.1818  0.2820
  682WAT     H2 2449   5.113   3.291   1.076 -1.5365 -0.1060  0.0143
  683WAT      O 2450   6.722   1.194   2.215  0.5968  0.1522  0.1946
  683WAT     H1 2451   6.817   1.189   2.228  0.4608 -1.2045  0.8615
  683WAT     H2 2452   6.698   1.109   2.178 -0.2959  0.6789 -0.4757
  684WAT      O 2453   0.450   3.370   1.144 -0.4874  0.0830 -0.5243
  684WAT     H1 2454   0.428   3.430   1.215  0.4305 -0.7056  0.4514
  684WAT     H2 2455   0.390   3.297   1.155 -0.3076 -0.0660 -0.5349
  685WAT      O 2456   4.079   3.647   1.006 -0.6621  0.2450 -0.5606
  685WAT     H1 2457   4.148   3.585   0.981 -0.2363 -0.9551  3.0201
  685WAT     H2 2458   4.126   3.727   1.029 -0.8732  0.7321 -1.7803
  686WAT      O 2459   2.220   4.590   3.986 -0.7501 -0.4784  0.3994
  686WAT     H1 2460   2.199   4.515   3.930  0.1262  0.4155 -1.1709
  686WAT     H2 2461   2.139   4.606   4.036 -1.4706 -1.4541 -0.4163
  687WAT      O 2462   1.484   0.968   2.889  0.1572  0.1027 -0.3451
  687WAT     H1 2463   1.503   1.053   2.928 -1.2027  0.2796  0.0099
  687WAT     H2 2464   1.426   0.926   2.952 -0.8839 -0.2103 -1.4777
  688WAT      O 2465   7.488   3.240   3.137  0.0875 -0.3845 -0.1248
  688WAT     H1 2466   7.575   3.257   3.101 -0.3706 -1.3679 -1.7968
  688WAT     H2 2467   7.440   3.197   3.066 -1.0753 -1.8536  1.4412
  689WAT      O 2468   7.458   1.216   4.101 -0.4131  0.1498 -0.4854
  689WAT     H1 2469   7.494   1.165   4.174 -2.0251  0.0858  0.3222
  689WAT     H2 2470   7.519   1.289   4.091  0.5895 -0.5895  0.0000
  690WAT      O 2471   7.559   5.580   3.648 -0.4938  0.6863  0.5880
  690WAT     H1 2472   7.497   5.608   3.715 -2.7081 -0.8639 -0.6648
  690WAT     H2 2473   7.525   5.619   3.566  0.7782  0.6232  0.0112
  691WAT      O 2474   6.307   1.459   5.840  0.4002  0.1772  0.1889
  691WAT     H1 2475   6.356   1.516   5.898  0.9662  1.1354 -1.1680
  691WAT     H2 2476   6.215   1.473   5.864  0.6247  0.6147  0.7965
  692WAT      O 2477   4.640   2.817   2.044 -0.2077 -0.0809  0.2669
  692WAT     H1 2478   4.611   2.899   2.083 -1.2052 -1.5823  3.0154
  692WAT     H2 2479   4.735   2.828   2.033 -0.0937  0.9766  1.9203
  693WAT      O 2480   3.392   2.270   5.876 -0.1457  0.5341 -0.0306
  693WAT     H1 2481   3.331   2.283   5.949 -0.0988  0.1791  0.0723
  693WAT     H2 2482   3.476   2.251   5.918  0.1989  1.6546 -0.1560
  694WAT      O 2483   0.760   5.889   1.078  0.0657  0.0041  0.0732
  694WAT     H1 2484   0.744   5.973   1.035  2.7265  0.4691 -0.1868
  694WAT     H2 2485   0.790   5.913   1.166  1.9912 -0.5530 -0.3854
  695WAT      O 2486   5.694   2.886   3.020 -0.1895  0.0591 -0.0520
  695WAT     H1 2487   5.652   2.845   3.095 -0.9435  1.0482  0.0888
  695WAT     H2 2488   5.741   2.961   3.058  1.4413 -0.8108 -0.2540
  696WAT      O 2489   3.184   2.104   2.948 -0.2717  0.1220  0.2812
  696WAT     H1 2490   3.101   2.104   2.997 -0.0372 -0.3588  0.6808
  696WAT     H2 2491   3.187   2.018   2.906  0.1840  0.0109  0.5407
  697WAT      O 2492   6.237   2.151   5.467 -0.7279  0.4382 -0.4235
  697WAT     H1 2493   6.145   2.134   5.486 -1.9572  5.4236 -0.5277
  697WAT     H2 2494   6.280   2.148   5.553 -0.9236 -1.7214 -0.3555
  698WAT      O 2495   4.362   2.350   0.074  0.1935 -0.6803  0.2559
  698WAT     H1 2496   4.277   2.340   0.031  0.4785 -0.9453 -0.2485
  698WAT     H2 2497   4.396   2.261   0.082  0.4815 -0.5638  0.3471
  699WAT      O 2498   4.963   2.201   1.200  0.8573  0.2520 -0.7990
  699WAT     H1 2499   5.047   2.231   1.234  0.0888  0.8763  0.6600
  699WAT     H2 2500   4.898   2.238   1.260 -0.2939 -2.5974 -0.0944
  700WAT      O 2501   3.075   5.940   5.244 -0.1821 -0.4381  0.5944
  700WAT     H1 2502   3.030   6.024   5.246 -0.3182 -0.5189  1.9695
  700WAT     H2 2503   3.005   5.875   5.250  0.0052 -0.6113  0.9024
  701WAT      O 2504   1.658   6.326   5.665 -0.2034  0.1544  0.4082
  701WAT     H1 2505   1.725   6.395   5.663 -0.6825  0.6713  1.3285
  701WAT     H2 2506   1.582   6.367   5.623 -1.0700  0.8714  2.5382
  702WAT      O 2507   7.634   4.097   3.238  0.2950  0.1742  0.2325
  702WAT     H1 2508   7.711   4.112   3.292 -0.0628 -0.2852  0.8869
  702WAT     H2 2509   7.659   4.026   3.179 -0.1123 -1.0740  1.4992
  703WAT      O 2510   7.550   6.606   0.291 -0.3096  0.1820 -0.1438
  703WAT     H1 2511   7.581   6.517   0.271 -0.7766  0.4160 -2.0667
  703WAT     H2 2512   7.516   6.599   0.380 -1.1385 -1.7991 -0.5529
  704WAT      O 2513   4.193   3.785   2.278  0.2291  0.1784 -0.3404
  704WAT     H1 2514   4.161   3.734   2.353 -0.2373  0.0375 -0.6267
  704WAT     H2 2515   4.130   3.765   2.208  0.4154  0.6438 -0.6422
  705WAT      O 2516   2.850   4.209   1.363  0.4082 -0.1314 -0.1046
  705WAT     H1 2517   2.819   4.162   1.440  0.7859 -0.8891 -0.4008
  705WAT     H2 2518   2.770   4.231   1.315  0.1485  0.6393  0.6489
  706WAT      O 2519   1.557   1.572   5.089  0.1043  0.3151 -0.1851
  706WAT     H1 2520   1.496   1.543   5.156  0.9052  1.3075  1.0130
  706WAT     H2 2521   1.619   1.628   5.135 -0.2158  2.3075 -2.0382
  707WAT      O 2522   3.612   4.486   3.936 -0.0098  0.3847  0.1143
  707WAT     H1 2523   3.574   4.432   4.006  0.1185 -0.5515 -0.5096
  707WAT     H2 2524   3.686   4.530   3.977 -1.4610  1.9017  1.2431
  708WAT      O 2525   3.239   1.344   5.308 -0.0166 -0.1855  0.2429
  708WAT     H1 2526   3.273   1.359   5.396  0.6015  0.1833 -0.0583
  708WAT     H2 2527   3.293   1.398   5.251  0.2887 -1.2471 -0.5017
  709WAT      O 2528   3.720   4.354   5.527 -0.2744 -0.0003  0.0021
  709WAT     H1 2529   3.639   4.403   5.547 -0.8266 -1.6809  2.3240
  709WAT     H2 2530   3.760   4.340   5.613 -0.5594 -4.1866 -0.3561
  710WAT      O 2531   4.853   6.603   1.221 -0.4722 -0.5717 -0.2155
  710WAT     H1 2532   4.801   6.671   1.263  0.7958  1.4621 -1.7515
  710WAT     H2 2533   4.790   6.556   1.166 -0.9186  1.4618 -1.5836
  711WAT      O 2534   1.567   0.767   5.803 -0.0768 -0.6041  0.5931
  711WAT     H1 2535   1.515   0.695   5.767 -2.4791  1.4157 -0.2153
  711WAT     H2 2536   1.505   0.821   5.851  1.0633  2.2754 -0.9431
  712WAT      O 2537   1.070   7.082   2.821 -0.0507 -0.0933  0.2667
  712WAT     H1 2538   1.151   7.133   2.815  0.0421 -0.2350  0.3018
  712WAT     H2 2539   1.021   7.105   2.742 -0.2683  0.4893  0.5606
  713WAT      O 2540   4.540   2.993   3.930 -0.7244 -0.4250  0.4751
  713WAT     H1 2541   4.567   3.038   4.011 -0.6720  0.2359  0.0960
  713WAT     H2 2542   4.453   3.029   3.911 -0.4514 -0.0730 -0.1325
  714WAT      O 2543   7.222   1.525   1.845 -0.1895  0.1498 -0.2678
  714WAT     H1 2544   7.269   1.442   1.854  1.1075  0.4798 -2.9705
  714WAT     H2 2545   7.291   1.589   1.827 -1.1405  1.9135  2.0212
  715WAT      O 2546   5.304   3.835   4.283  0.0608 -0.0940  0.1991
  715WAT     H1 2547   5.255   3.895   4.227 -1.4822  0.3291  1.8880
  715WAT     H2 2548   5.239   3.802   4.346  1.4764 -1.3437  1.0886
  716WAT      O 2549   1.123   5.437   3.425  0.1494 -0.4284 -0.6941
  716WAT     H1 2550   1.155   5.405   3.509  0.1558 -1.9364 -1.2238
  716WAT     H2 2551   1.138   5.531   3.426 -0.9983 -0.2127  1.4867
  717WAT      O 2552   6.635   4.294   0.750 -0.2934 -0.0773  0.2288
  717WAT     H1 2553   6.572   4.294   0.821  0.0240 -0.8906  0.5175
  717WAT     H2 2554   6.712   4.338   0.786 -0.2668 -0.1560  0.2682
  718WAT      O 2555   2.885   6.652   2.120 -0.6187  0.0032 -0.3820
  718WAT     H1 2556   2.928   6.663   2.036  0.5745  0.2189  0.2448
  718WAT     H2 2557   2.897   6.559   2.142  0.6905  0.3360  0.3938
  719WAT      O 2558   5.433   4.783   0.102  0.0541  0.2353  0.0752
  719WAT     H1 2559   5.449   4.843   0.175  0.0268  0.0678  0.2171
  719WAT     H2 2560   5.394   4.706   0.142 -0.7133  0.4679 -0.2102
  720WAT      O 2561   1.622   4.147   6.031 -0.5660 -0.0176  0.1525
  720WAT     H1 2562   1.591   4.133   6.120 -0.3638 -1.2559  0.0364
  720WAT     H2 2563   1.716   4.160   6.040 -0.8567  2.4417  0.3633
  721WAT      O 2564   3.028   1.681   0.370  0.2065  0.4398 -0.2265
  721WAT     H1 2565   2.990   1.593   0.364  0.1371  0.4736 -0.2947
  721WAT     H2 2566   3.081   1.680   0.449  0.9929  0.0314 -0.7437
  722WAT      O 2567   2.360   1.460   3.878 -0.3194 -0.1993 -0.3312
  722WAT     H1 2568   2.279   1.491   3.838  0.2217 -1.6811 -2.8028
  722WAT     H2 2569   2.360   1.365   3.861  1.6467 -0.3199  0.1198
  723WAT      O 2570   4.690   3.605   2.728 -0.2420 -0.0837 -0.8864
  723WAT     H1 2571   4.739   3.683   2.701 -0.2117 -0.1646 -1.0630
  723WAT     H2 2572   4.672   3.620   2.821  1.9333 -0.9849 -0.2448
  724WAT      O 2573   6.595   2.139   3.868 -0.3513 -0.8317  0.7324
  724WAT     H1 2574   6.529   2.123   3.935 -1.0228 -1.5997 -0.0847
  724WAT     H2 2575   6.599   2.234   3.861 -0.9491 -0.7646  1.2057
  725WAT      O 2576   6.412   4.101   2.157 -0.3540  0.4197 -0.1052
  725WAT     H1 2577   6.506   4.117   2.165 -0.4904  1.1065  0.2509
  725WAT     H2 2578   6.372   4.182   2.189 -1.0959 -0.5742  1.6201
  726WAT      O 2579   5.406   3.115   4.247  0.2400  0.4074  0.0675
  726WAT     H1 2580   5.353   3.049   4.291  0.9303 -0.5156 -0.4582
  726WAT     H2 2581   5.481   3.067   4.211  0.0213  1.2170 -1.5925
  727WAT      O 2582   4.380   5.921   0.330  0.3704  0.6554 -0.1670
  727WAT     H1 2583   4.367   5.976   0.252  0.7926  1.4831  0.3380
  727WAT     H2 2584   4.385   5.983   0.402 -0.5495 -0.1344  0.6055
  728WAT      O 2585   1.533   6.015   4.323 -0.5451  0.0207 -0.1166
  728WAT     H1 2586   1.623   5.989   4.342 -0.6380 -1.2393 -1.2457
  728WAT     H2 2587   1.486   5.997   4.405 -0.3851 -2.5962 -0.4947
  729WAT      O 2588   5.286   0.905   1.747 -0.1437  0.4761  0.3376
  729WAT     H1 2589   5.197   0.879   1.770 -0.2878  0.3250 -0.3424
  729WAT     H2 2590   5.321   0.947   1.825  0.1678 -1.9272  1.5704
  730WAT      O 2591   1.094   0.887   0.471 -0.1076  0.7916  0.2023
  730WAT     H1 2592   1.008   0.845   0.477  1.7435 -4.5090 -3.1769
  730WAT     H2 2593   1.088   0.941   0.392 -0.6063  1.2948  0.5781
  731WAT      O 2594   4.737   1.695   2.251  0.4244 -0.1268  0.5422
  731WAT     H1 2595   4.699   1.754   2.316  2.0387  1.2741  0.2795
  731WAT     H2 2596   4.827   1.681   2.281  1.2727  0.7088 -1.4435
  732WAT      O 2597   5.350   1.022   3.159  0.2071 -0.6376 -0.5717
  732WAT     H1 2598   5.439   0.990   3.176  0.4788  1.0441  1.7866
  732WAT     H2 2599   5.364   1.105   3.111  0.0071  0.1002  0.6068
  733WAT      O 2600   4.147   3.311   1.529  0.2802 -0.0940  0.0591
  733WAT     H1 2601   4.085   3.262   1.584  0.7526  0.2455  0.9174
  733WAT     H2 2602   4.207   3.245   1.495  1.0838 -0.1129  1.4355
  734WAT      O 2603   3.857   2.876   0.922 -0.1684  0.0469  0.3877
  734WAT     H1 2604   3.768   2.911   0.916 -0.7892 -1.2913  1.4989
  734WAT     H2 2605   3.903   2.918   0.849 -2.4047 -1.2945 -1.9845
  735WAT      O 2606   7.402   0.411   6.050  0.4653  0.8243  0.6533
  735WAT     H1 2607   7.362   0.439   6.132  2.9921 -3.9354  4.0688
  735WAT     H2 2608   7.347   0.340   6.019  0.4323  1.5041 -0.9446
  736WAT      O 2609   7.325   3.581   5.266  0.4966 -0.6122  0.0788
  736WAT     H1 2610   7.410   3.567   5.225  0.8287  2.7259 -0.6952
  736WAT     H2 2611   7.263   3.584   5.194 -0.0844 -1.6338  0.5156
  737WAT      O 2612   0.438   2.998   0.826 -0.2676  0.4516  0.4615
  737WAT     H1 2613   0.377   3.027   0.895 -1.0369  1.1695 -0.4899
  737WAT     H2 2614   0.428   2.903   0.824 -0.6159  0.4719  1.0022
  738WAT      O 2615   5.207   1.727   0.724 -0.4026 -0.5057 -0.2428
  738WAT     H1 2616   5.260   1.801   0.755 -0.1637 -1.1418  0.9181
  738WAT     H2 2617   5.117   1.750   0.746 -0.4131 -0.2376 -0.5575
  739WAT      O 2618   4.821   5.617   2.092 -0.4321 -0.3696  0.1952
  739WAT     H1 2619   4.815   5.531   2.050  0.0302 -0.4206  0.2285
  739WAT     H2 2620   4.734   5.655   2.082 -0.8824 -1.1754  0.8932
  740WAT      O 2621   0.452   6.067   4.723 -0.1687 -0.2398  0.2900
  740WAT     H1 2622   0.516   6.068   4.794 -0.4228 -0.3364  0.5232
  740WAT     H2 2623   0.383   6.008   4.754 -0.3457 -0.1777  0.0189
  741WAT      O 2624   0.171   6.660   4.234  0.1068 -0.4148  0.2062
  741WAT     H1 2625   0.225   6.611   4.173  1.5415  0.6906  0.5347
  741WAT     H2 2626   0.156   6.745   4.192  0.4146  0.0564  1.0155
  742WAT      O 2627   1.780   1.751   1.375  0.0701 -0.0723 -0.4229
  742WAT     H1 2628   1.845   1.699   1.422  0.7847 -2.5509 -3.7680
  742WAT     H2 2629   1.697   1.732   1.418  1.0038  0.0061  1.4904
  743WAT      O 2630   7.123   6.442   2.890  0.3818 -0.2860 -0.0192
  743WAT     H1 2631   7.088   6.430   2.802  1.5185  0.0300 -0.5371
  743WAT     H2 2632   7.153   6.355   2.916 -0.4134 -0.4816  0.2740
  744WAT      O 2633   0.688   4.077   0.167 -0.5568 -0.4199 -0.5182
  744WAT     H1 2634   0.628   4.012   0.203  1.7498 -1.4324  1.7983
  744WAT     H2 2635   0.706   4.137   0.240  1.5567 -0.4441 -0.9357
  745WAT      O 2636   6.983   2.450   5.313 -0.1097  0.0119 -0.2831
  745WAT     H1 2637   6.995   2.430   5.406 -0.8203  2.1047  0.3135
  745WAT     H2 2638   6.896   2.414   5.292  0.1749 -0.7208 -0.2295
  746WAT      O 2639   4.645   3.383   6.156 -0.1354 -0.8084  0.5037
  746WAT     H1 2640   4.626   3.374   6.249  1.3185 -1.7468  0.7474
  746WAT     H2 2641   4.723   3.438   6.152  0.3676 -1.5433 -0.0824
  747WAT      O 2642   2.928   7.076   3.205 -0.8958  0.4230 -0.1789
  747WAT     H1 2643   3.013   7.121   3.198 -1.0233  0.6902  0.0112
  747WAT     H2 2644   2.877   7.130   3.265 -0.5746 -0.7129  1.1653
  748WAT      O 2645   7.191   4.067   5.923  0.2418 -0.0858  0.0324
  748WAT     H1 2646   7.175   4.092   6.014 -0.3250 -0.9551  0.1824
  748WAT     H2 2647   7.200   3.972   5.925 -2.7880 -0.5271 -1.1839
  749WAT      O 2648   2.832   4.637   1.985 -0.3251 -0.5981 -0.3155
  749WAT     H1 2649   2.819   4.697   2.058 -0.1782 -0.7797 -0.1416
  749WAT     H2 2650   2.786   4.557   2.010 -0.2937 -0.6533 -0.4311
  750WAT      O 2651   7.556   7.068   0.324 -0.4758  0.4024  0.3964
  750WAT     H1 2652   7.583   7.158   0.304  0.7278  0.7452  3.1244
  750WAT     H2 2653   7.631   7.014   0.297 -1.3073  0.1084 -1.4990
  751WAT      O 2654   4.832   7.156   3.711  0.0683 -0.3172 -0.1491
  751WAT     H1 2655   4.785   7.074   3.727  2.0405 -1.5401 -0.2633
  751WAT     H2 2656   4.774   7.206   3.654 -0.5883 -2.2917 -1.3232
  752WAT      O 2657   2.183   2.130   1.397  0.7940  0.4027  0.5759
  752WAT     H1 2658   2.186   2.225   1.411  0.1861  0.3580  1.0813
  752WAT     H2 2659   2.105   2.102   1.445  0.0979 -0.1494 -0.8347
  753WAT      O 2660   7.175   4.454   1.014  0.2430 -0.0851  0.1893
  753WAT     H1 2661   7.198   4.514   1.085 -2.4973  0.9482  0.2987
  753WAT     H2 2662   7.107   4.398   1.051  1.4023 -2.0764 -0.5221
  754WAT      O 2663   7.288   5.307   2.245  0.0914 -0.5983  0.0882
  754WAT     H1 2664   7.374   5.329   2.282 -0.3835  0.5490  0.5606
  754WAT     H2 2665   7.229   5.375   2.279 -0.9468 -1.1954 -0.4668
  755WAT      O 2666   5.877   5.096   1.788 -0.2622 -0.2080 -0.1408
  755WAT     H1 2667   5.877   5.109   1.882  0.5616  0.0452 -0.1738
  755WAT     H2 2668   5.787   5.117   1.761 -0.2144  0.8139  0.4388
  756WAT      O 2669   7.240   5.578   0.619 -0.0132 -0.5013  0.1516
  756WAT     H1 2670   7.290   5.514   0.670  1.5956 -0.3908 -1.2034
  756WAT     H2 2671   7.285   5.582   0.535  0.5102  3.0571  0.4450
  757WAT      O 2672   7.261   0.741   5.083  0.5535 -0.2187  0.2665
  757WAT     H1 2673   7.214   0.758   5.002  1.2447 -0.2161 -0.1388
  757WAT     H2 2674   7.241   0.816   5.139  2.0167  1.0078 -0.7881
  758WAT      O 2675   4.338   1.945   0.942  0.4527  0.8101 -0.1991
  758WAT     H1 2676   4.376   2.032   0.956  0.4800  0.6617  0.6773
  758WAT     H2 2677   4.245   1.956   0.958  0.7182  0.2485  2.1122
  759WAT      O 2678   2.181   4.325   4.119  0.0716  0.0427  0.2843
  759WAT     H1 2679   2.155   4.238   4.152  1.5736 -0.4181  0.3361
  759WAT     H2 2680   2.146   4.328   4.030  1.3704 -1.2947 -0.3046
  760WAT      O 2681   4.569   7.129   4.984  0.2319  0.5956 -0.0301
  760WAT     H1 2682   4.498   7.183   4.951 -0.1322 -0.1548 -0.5111
  760WAT     H2 2683   4.529   7.044   5.000  0.3006  0.9805  2.6882
  761WAT      O 2684   7.606   7.129   0.608  0.7438  0.5159 -0.5315
  761WAT     H1 2685   7.586   7.128   0.514  0.0211 -0.0514 -0.3825
  761WAT     H2 2686   7.638   7.041   0.627 -1.1485 -0.0691  0.1527
  762WAT      O 2687   4.104   2.399   3.925 -0.3383 -0.1648  0.2090
  762WAT     H1 2688   4.068   2.454   3.994 -0.6759 -1.5432  1.1720
  762WAT     H2 2689   4.028   2.375   3.872 -0.1810  0.3302 -0.2509
  763WAT      O 2690   5.045   4.385   4.824 -0.3281 -0.2494 -0.3233
  763WAT     H1 2691   5.105   4.430   4.883 -0.2068 -0.7874 -0.0266
  763WAT     H2 2692   4.980   4.344   4.882 -1.1077  0.4846 -0.6474
  764WAT      O 2693   1.659   5.279   4.491 -0.0075 -0.2307 -0.1545
  764WAT     H1 2694   1.728   5.265   4.425  0.5216 -0.3331  0.4091
  764WAT     H2 2695   1.691   5.354   4.543 -0.7053  0.2370 -0.3833
  765WAT      O 2696   5.359   1.900   5.433  0.0992 -0.4252 -0.1283
  765WAT     H1 2697   5.301   1.960   5.480 -0.9306 -0.1992 -1.5915
  765WAT     H2 2698   5.408   1.855   5.501 -0.9689  0.2304  1.1209
  766WAT      O 2699   6.092   6.893   1.895  0.2601  0.6692 -0.2305
  766WAT     H1 2700   6.123   6.976   1.931  1.5444 -0.1948  0.7339
  766WAT     H2 2701   6.155   6.828   1.925 -1.1061 -0.7908 -0.3554
  767WAT      O 2702   1.619   0.122   5.332 -0.4555 -0.0613 -1.0174
  767WAT     H1 2703   1.572   0.051   5.376  0.1822 -1.1989 -2.1120
  767WAT     H2 2704   1.705   0.086   5.313  0.2430  1.3729 -0.6897
  768WAT      O 2705   0.427   2.169   0.449  0.5333  0.0305  0.3295
  768WAT     H1 2706   0.435   2.080   0.414 -0.1366 -0.1701  0.6794
  768WAT     H2 2707   0.419   2.158   0.543 -2.3988  0.2578  0.1788
  769WAT      O 2708   7.497   4.953   5.918  0.2908 -0.2658 -0.1718
  769WAT     H1 2709   7.421   4.978   5.867  0.1802  0.2916  0.2590
  769WAT     H2 2710   7.462   4.926   6.003  0.6139  0.7041  0.2876
  770WAT      O 2711   5.131   5.490   0.857  1.0633  0.0427  0.2279
  770WAT     H1 2712   5.184   5.410   0.856  1.5002  0.3282  0.2180
  770WAT     H2 2713   5.163   5.539   0.933 -1.0822 -1.0234  1.9225
  771WAT      O 2714   0.604   2.837   2.550 -0.2312  0.1835 -0.5131
  771WAT     H1 2715   0.569   2.889   2.623  0.8011 -0.7940  0.7168
  771WAT     H2 2716   0.547   2.760   2.547 -1.0402  0.7848 -1.5881
  772WAT      O 2717   5.687   6.236   0.372 -0.2416  0.3591 -0.0282
  772WAT     H1 2718   5.671   6.311   0.316  2.8187  0.6004 -0.7728
  772WAT     H2 2719   5.705   6.273   0.458  0.3387  0.4075 -0.1703
  773WAT      O 2720   5.363   6.688   4.124  0.0710  0.2457  0.3339
  773WAT     H1 2721   5.349   6.736   4.205  1.3556  1.5640 -0.1779
  773WAT     H2 2722   5.455   6.661   4.127 -0.3347 -1.2322  0.1016
  774WAT      O 2723   6.084   6.481   4.126 -0.1812 -0.3258  0.8592
  774WAT     H1 2724   6.046   6.393   4.135 -0.2230 -0.2308  1.7169
  774WAT     H2 2725   6.158   6.480   4.187 -0.0542  0.1665  0.7109
  775WAT      O 2726   1.844   6.697   5.198 -0.5826  0.1828  0.1906
  775WAT     H1 2727   1.833   6.644   5.120  2.5173  0.9152 -0.9176
  775WAT     H2 2728   1.868   6.634   5.267  1.7663 -0.1044 -0.7893
  776WAT      O 2729   1.994   5.674   3.479  0.5001 -0.3714 -0.5825
  776WAT     H1 2730   1.918   5.716   3.440  1.3635  0.6801 -1.1951
  776WAT     H2 2731   2.013   5.725   3.557  0.1054 -1.1235  0.0175
  777WAT      O 2732   6.289   0.138   0.202  0.4395  0.3860 -0.6052
  777WAT     H1 2733   6.274   0.189   0.282  1.0080 -2.8068  1.7492
  777WAT     H2 2734   6.205   0.098   0.182  0.1310  1.6763 -2.1162
  778WAT      O 2735   2.132   7.085   5.189 -0.1707  0.3988  0.0196
  778WAT     H1 2736   2.169   7.016   5.244  1.9401  0.1988 -1.5169
  778WAT     H2 2737   2.147   7.055   5.100 -1.9405  1.4984 -0.6925
  779WAT      O 2738   4.871   0.131   3.472  0.1963 -0.1661  0.1260
  779WAT     H1 2739   4.934   0.181   3.524 -1.0036  0.5425  0.9421
  779WAT     H2 2740   4.789   0.180   3.479 -0.1100 -0.2116 -2.1938
  780WAT      O 2741   1.172   0.630   3.944 -0.6021  0.8502  0.1461
  780WAT     H1 2742   1.267   0.622   3.940 -0.4314  2.6465 -0.0330
  780WAT     H2 2743   1.140   0.544   3.918  0.9700  0.6068 -1.1472
  781WAT      O 2744   0.729   6.978   3.329 -0.3646  0.0392  0.0116
  781WAT     H1 2745   0.690   6.891   3.318 -3.5557  1.0932  1.7366
  781WAT     H2 2746   0.762   6.979   3.419  0.6431  0.3059 -0.3434
  782WAT      O 2747   6.764   3.473   3.068 -0.1988 -0.1392  0.1005
  782WAT     H1 2748   6.815   3.444   3.144  1.5560  0.7981 -0.6462
  782WAT     H2 2749   6.734   3.561   3.092 -2.7059 -1.1511  1.0552
  783WAT      O 2750   0.819   2.812   4.342 -0.0920 -0.0071 -0.0834
  783WAT     H1 2751   0.728   2.801   4.372  0.3594  0.1778  1.3832
  783WAT     H2 2752   0.829   2.906   4.329  0.5025  0.2293  1.8336
  784WAT      O 2753   3.936   2.726   5.443  0.1874  0.2207  0.4320
  784WAT     H1 2754   3.892   2.652   5.402 -0.7798  0.4747  0.9810
  784WAT     H2 2755   3.882   2.802   5.420  2.1077  1.0829 -1.6395
  785WAT      O 2756   6.691   3.348   6.063 -0.1132  0.3340 -0.4125
  785WAT     H1 2757   6.668   3.378   6.152  0.2005  0.0614 -0.2389
  785WAT     H2 2758   6.756   3.280   6.077 -1.0420 -0.6498 -0.7958
  786WAT      O 2759   3.429   7.145   4.369 -0.5442  0.2634  0.1499
  786WAT     H1 2760   3.439   7.204   4.443 -0.1479  1.9256 -1.1433
  786WAT     H2 2761   3.514   7.105   4.357 -0.9570 -1.0278  1.3664
  787WAT      O 2762   6.690   5.567   1.837  0.2517  0.4902  0.3286
  787WAT     H1 2763   6.657   5.550   1.925  1.8550  1.2948  1.1238
  787WAT     H2 2764   6.660   5.655   1.816  0.3688  0.5277  0.3184
  788WAT      O 2765   0.642   2.457   1.140  0.2105 -0.2928 -0.5793
  788WAT     H1 2766   0.710   2.428   1.078 -1.0595 -1.2332 -1.5825
  788WAT     H2 2767   0.603   2.375   1.172 -0.2537  0.2301  0.2081
  789WAT      O 2768   1.749   6.901   4.542  0.2866 -0.8432 -0.3972
  789WAT     H1 2769   1.729   6.822   4.592 -0.4726 -0.7827 -0.6001
  789WAT     H2 2770   1.822   6.941   4.590  0.4450 -1.4803 -0.0950
  790WAT      O 2771   5.821   0.336   0.351  0.9449 -0.2398  0.5180
  790WAT     H1 2772   5.767   0.269   0.393 -1.4474 -0.7040 -2.8875
  790WAT     H2 2773   5.783   0.419   0.381 -0.0885 -0.5382  0.0891
  791WAT      O 2774   5.952   3.519   1.221 -0.0482 -0.2689 -0.0464
  791WAT     H1 2775   5.867   3.550   1.190  0.8333 -0.2899 -2.8128
  791WAT     H2 2776   5.966   3.565   1.304 -1.4104  2.1514 -1.0396
  792WAT      O 2777   6.069   6.274   2.347  0.0451  0.0505  0.3059
  792WAT     H1 2778   6.003   6.291   2.414 -1.0814  0.4778 -0.8829
  792WAT     H2 2779   6.083   6.359   2.305 -0.0759 -0.4354 -0.7295
  793WAT      O 2780   5.594   1.883   1.484  0.7105 -0.5963 -0.1012
  793WAT     H1 2781   5.637   1.830   1.551  0.6789  0.8909  1.1603
  793WAT     H2 2782   5.662   1.942   1.452  0.0273  0.6999  0.7740
  794WAT      O 2783   1.756   1.118   1.008 -0.2312  0.2005 -0.6522
  794WAT     H1 2784   1.804   1.105   1.090 -1.3988 -1.0416 -0.1286
  794WAT     H2 2785   1.719   1.206   1.015  0.3599  0.4235 -0.2242
  795WAT      O 2786   7.423   4.253   2.756 -0.0046  0.6326  0.3277
  795WAT     H1 2787   7.507   4.244   2.712  0.4922 -2.4133  1.6671
  795WAT     H2 2788   7.364   4.197   2.705  0.1104 -1.3680  2.2591
  796WAT      O 2789   6.372   6.798   0.575  0.1496 -0.8591  0.1960
  796WAT     H1 2790   6.426   6.813   0.653  0.1858  0.7343 -0.1095
  796WAT     H2 2791   6.419   6.841   0.504 -0.0894 -1.9522 -0.6594
  797WAT      O 2792   4.876   3.923   4.829  0.3195  0.3880 -0.1293
  797WAT     H1 2793   4.934   3.855   4.863 -0.6482 -0.5347 -0.2761
  797WAT     H2 2794   4.862   3.982   4.903  2.2361  1.2028 -0.3766
  798WAT      O 2795   4.174   1.206   2.939 -0.2267  0.3343 -0.7926
  798WAT     H1 2796   4.120   1.285   2.947  1.4949  1.5009 -0.0547
  798WAT     H2 2797   4.249   1.234   2.886  0.1132 -0.9930 -1.0396
  799WAT      O 2798   2.600   0.488   6.199  0.2286  0.1951  0.1914
  799WAT     H1 2799   2.567   0.423   6.261 -4.0301  0.7288 -1.1889
  799WAT     H2 2800   2.660   0.440   6.143  0.8279 -1.3251  2.0359
  800WAT      O 2801   0.394   6.185   2.101 -0.1166  0.2238  0.0267
  800WAT     H1 2802   0.398   6.263   2.156 -0.1380 -0.2358  0.6911
  800WAT     H2 2803   0.467   6.130   2.131  0.3986  0.3281 -0.9728
  801WAT      O 2804   5.835   4.697   5.196 -0.1100 -0.2955  0.2776
  801WAT     H1 2805   5.809   4.715   5.106  0.2821 -0.9498  0.0241
  801WAT     H2 2806   5.836   4.602   5.202 -3.1411 -0.3299  1.8783
  802WAT      O 2807   4.614   5.816   1.146 -0.0607  0.4768 -0.3227
  802WAT     H1 2808   4.649   5.729   1.167 -0.0142  0.7887  0.9572
  802WAT     H2 2809   4.560   5.839   1.221 -1.4313  0.8642 -1.3884
  803WAT      O 2810   6.617   5.655   5.754 -0.2032  0.0668 -0.0825
  803WAT     H1 2811   6.692   5.598   5.735 -0.3225  0.3569 -1.5600
  803WAT     H2 2812   6.593   5.633   5.844  2.1711  0.5644  0.7558
  804WAT      O 2813   2.074   2.064   0.669 -0.3777 -0.0332  0.2157
  804WAT     H1 2814   2.036   2.119   0.737 -0.5328  0.9425 -0.6384
  804WAT     H2 2815   2.143   2.014   0.713 -1.7787 -0.8765  1.5037
  805WAT      O 2816   3.493   5.862   2.785  0.0743 -0.2907 -0.5966
  805WAT     H1 2817   3.549   5.863   2.707  1.8665  0.6080  0.6273
  805WAT     H2 2818   3.482   5.955   2.807 -0.8775 -0.5137 -0.0715
  806WAT      O 2819   0.635   2.170   4.956  0.0703  0.5336 -0.6632
  806WAT     H1 2820   0.588   2.103   4.907 -1.6049 -0.5956  2.2881
  806WAT     H2 2821   0.688   2.122   5.019  1.6621  1.9573 -0.8261
  807WAT      O 2822   3.372   6.425   0.208 -0.0680 -0.4801  0.0142
  807WAT     H1 2823   3.419   6.376   0.276  1.2399 -0.0256 -0.5284
  807WAT     H2 2824   3.313   6.482   0.257 -0.3826 -1.3632  0.7067
  808WAT      O 2825   1.263   4.536   4.424  0.5548  0.5405  0.3149
  808WAT     H1 2826   1.228   4.447   4.420  1.3819  0.2401 -0.4126
  808WAT     H2 2827   1.192   4.588   4.463 -0.5850 -0.1116 -0.8409
  809WAT      O 2828   5.146   5.552   1.265 -0.3309 -0.5069 -0.3302
  809WAT     H1 2829   5.066   5.604   1.273 -0.3149 -0.7179  1.5187
  809WAT     H2 2830   5.118   5.462   1.277 -0.1529 -0.8632 -2.2140
  810WAT      O 2831   3.858   4.031   1.501 -0.0208 -0.3836  0.0203
  810WAT     H1 2832   3.806   4.111   1.493  1.0591  0.4083  0.6366
  810WAT     H2 2833   3.795   3.964   1.526 -0.9638  0.2411 -0.6078
  811WAT      O 2834   7.153   6.795   0.525 -0.4463  0.1422  0.9171
  811WAT     H1 2835   7.135   6.875   0.475 -1.3354  0.7412  2.1355
  811WAT     H2 2836   7.242   6.807   0.557 -0.4710  0.5191  0.8604
  812WAT      O 2837   3.922   6.424   6.145 -0.1651  0.2633 -0.5519
  812WAT     H1 2838   3.832   6.400   6.168 -0.2006 -0.0031 -0.9591
  812WAT     H2 2839   3.915   6.513   6.110 -0.3317  0.0937 -0.9589
  813WAT      O 2840   6.894   0.395   0.516  0.0975  0.0512  0.5703
  813WAT     H1 2841   6.880   0.394   0.610  1.4803  0.6952  0.8084
  813WAT     H2 2842   6.806   0.385   0.478 -0.4326 -0.5416  1.9083
  814WAT      O 2843   0.232   6.555   6.202  0.1802  0.1435  0.0096
  814WAT     H1 2844   0.159   6.609   6.235 -1.0972 -1.7781  0.5189
  814WAT     H2 2845   0.306   6.580   6.257 -0.3967  1.2715  0.3213
  815WAT      O 2846   4.788   2.067   6.004  0.2472  0.1607  0.1268
  815WAT     H1 2847   4.850   2.126   6.047  0.8123 -0.9270  0.8562
  815WAT     H2 2848   4.753   2.014   6.075 -0.9959  0.2746 -0.3816
  816WAT      O 2849   1.603   4.038   0.789  0.4871  0.4052  0.2134
  816WAT     H1 2850   1.582   4.131   0.785 -0.9284  0.0751 -0.4382
  816WAT     H2 2851   1.698   4.036   0.804  0.5723  1.9377  0.0498
  817WAT      O 2852   6.319   1.723   5.319 -0.2771  0.1800 -0.7031
  817WAT     H1 2853   6.266   1.656   5.361 -1.5720  2.2946  1.2383
  817WAT     H2 2854   6.257   1.793   5.297  1.3393  1.7890 -0.4099
  818WAT      O 2855   3.909   3.456   1.865  0.3611 -0.2243  0.1893
  818WAT     H1 2856   3.817   3.468   1.889  0.3215  0.9183 -0.5061
  818WAT     H2 2857   3.947   3.543   1.871  1.5555 -0.7813  1.0450
  819WAT      O 2858   2.995   4.816   5.060 -0.6767  0.3027  0.0272
  819WAT     H1 2859   3.087   4.800   5.080 -1.0960 -2.6698  0.0362
  819WAT     H2 2860   2.948   4.787   5.138 -1.6775  1.0507 -0.2772
  820WAT      O 2861   6.455   2.338   4.607 -0.4463 -0.4950  0.7561
  820WAT     H1 2862   6.391   2.323   4.537  0.6485 -2.7123  0.1688
  820WAT     H2 2863   6.438   2.268   4.670  0.9937 -0.7524  0.8760
  821WAT      O 2864   0.420   4.333   2.398  0.5157  0.0627 -0.3166
  821WAT     H1 2865   0.477   4.399   2.359  1.4168  0.3570  1.3730
  821WAT     H2 2866   0.478   4.260   2.418  0.0602 -0.1486  0.2691
  822WAT      O 2867   5.697   6.451   1.067 -0.0443  0.9358 -0.7908
  822WAT     H1 2868   5.692   6.545   1.051  1.2952  1.5760  1.8839
  822WAT     H2 2869   5.663   6.440   1.156  0.9617 -0.8947 -0.5732
  823WAT      O 2870   1.342   4.065   4.537  0.2660 -0.6524 -0.1444
  823WAT     H1 2871   1.316   4.020   4.618 -1.3337  1.4336  0.6018
  823WAT     H2 2872   1.270   4.049   4.476 -0.0747  0.4201 -0.0393
  824WAT      O 2873   4.361   1.606   2.497  0.1917  0.2857 -0.2255
  824WAT     H1 2874   4.351   1.701   2.493 -2.6016  0.2383  2.1958
  824WAT     H2 2875   4.368   1.586   2.591 -1.6267 -2.0300 -0.4874
  825WAT      O 2876   6.786   3.858   1.525  0.5502 -0.1730 -0.3352
  825WAT     H1 2877   6.783   3.931   1.463 -0.4621  0.4727  0.4464
  825WAT     H2 2878   6.875   3.861   1.561  1.1095 -0.4754 -1.6281
  826WAT      O 2879   5.301   0.697   6.095 -0.0030  0.7793 -0.4558
  826WAT     H1 2880   5.218   0.739   6.071 -0.5966 -0.7295 -1.1926
  826WAT     H2 2881   5.280   0.645   6.172  0.0588 -0.1648 -1.0593
  827WAT      O 2882   2.558   3.612   5.591 -0.0334 -0.0870 -0.1573
  827WAT     H1 2883   2.478   3.612   5.644 -0.0431 -1.0451 -0.1534
  827WAT     H2 2884   2.628   3.596   5.655  0.1191  0.3026 -0.2240
  828WAT      O 2885   1.515   2.620   6.232  0.3790  0.1404  0.0178
  828WAT     H1 2886   1.581   2.558   6.201  1.0867  1.0293 -0.2872
  828WAT     H2 2887   1.501   2.596   6.324  0.9261 -0.2272  0.0124
  829WAT      O 2888   4.262   6.582   1.299 -0.0618  0.3501  0.2511
  829WAT     H1 2889   4.180   6.537   1.281 -0.7639  1.5197  0.4581
  829WAT     H2 2890   4.249   6.623   1.384  0.0729  2.0211 -0.5009
  830WAT      O 2891   3.492   6.450   1.730  0.0255  0.2031  0.2028
  830WAT     H1 2892   3.471   6.443   1.637  1.3381 -0.4805 -0.0643
  830WAT     H2 2893   3.464   6.538   1.755  0.9262  0.9171 -1.1872
  831WAT      O 2894   4.098   4.339   4.119 -0.2195  0.0592 -0.1401
  831WAT     H1 2895   4.153   4.335   4.198  0.1565 -0.4072 -0.4188
  831WAT     H2 2896   4.009   4.347   4.153 -0.0805 -0.3751  0.3423
  832WAT      O 2897   3.993   5.621   3.290  0.1517 -0.1764 -0.2107
  832WAT     H1 2898   3.985   5.614   3.385 -0.6411 -2.3200 -0.3826
  832WAT     H2 2899   4.083   5.595   3.271  0.8972  2.0195  0.0350
  833WAT      O 2900   0.586   2.307   3.814  0.8960 -0.1046 -0.2457
  833WAT     H1 2901   0.602   2.223   3.857  0.7845  0.4823  0.9829
  833WAT     H2 2902   0.624   2.297   3.727 -0.7559 -2.0717 -0.8251
  834WAT      O 2903   5.945   5.206   2.447 -0.0174  0.0381  0.0727
  834WAT     H1 2904   5.920   5.205   2.540 -0.3916  1.1321  0.0039
  834WAT     H2 2905   5.888   5.272   2.408  0.2305 -0.3203 -0.9134
  835WAT      O 2906   1.472   5.413   0.135  0.0783 -0.2882 -0.6301
  835WAT     H1 2907   1.512   5.370   0.211 -1.7048 -1.0589 -0.0860
  835WAT     H2 2908   1.463   5.505   0.162  1.8752  0.0251 -0.9597
  836WAT      O 2909   5.576   6.819   1.227  0.5036 -0.0132 -0.2412
  836WAT     H1 2910   5.557   6.748   1.288 -1.0986 -0.5498 -1.3221
  836WAT     H2 2911   5.563   6.899   1.278  0.5255 -0.4592  0.4733
  837WAT      O 2912   2.670   4.931   3.960  0.5038  0.0556 -0.7896
  837WAT     H1 2913   2.575   4.936   3.975  0.5511 -0.4633 -0.2939
  837WAT     H2 2914   2.704   5.013   3.997  0.3330 -0.0981 -0.2841
  838WAT      O 2915   3.514   0.164   3.603  0.1617  0.8481 -0.3203
  838WAT     H1 2916   3.449   0.163   3.674 -0.2933 -0.4268 -0.7282
  838WAT     H2 2917   3.563   0.244   3.617  0.8502  0.0846  2.1546
  839WAT      O 2918   4.612   0.241   0.257 -0.5655  0.3440 -0.0852
  839WAT     H1 2919   4.619   0.330   0.291 -0.7951  0.5357 -0.5321
  839WAT     H2 2920   4.530   0.240   0.207 -1.4592 -0.5863  1.2897
  840WAT      O 2921   2.950   1.970   5.100 -0.5190 -0.2432 -0.1479
  840WAT     H1 2922   2.890   1.981   5.027  0.1742 -2.6807 -1.1513
  840WAT     H2 2923   2.959   1.876   5.111  0.2954  0.0385  2.3762
  841WAT      O 2924   6.790   3.413   0.208  0.1520  0.0970 -0.1442
  841WAT     H1 2925   6.761   3.419   0.299 -1.7727 -0.8692 -0.6588
  841WAT     H2 2926   6.719   3.369   0.162  1.7197 -0.8219 -1.8457
  842WAT      O 2927   5.832   3.172   5.764 -0.6772  0.0362 -0.3511
  842WAT     H1 2928   5.840   3.128   5.848  0.7843 -0.2355 -0.6119
  842WAT     H2 2929   5.738   3.169   5.745 -1.0666  0.2729  1.3419
  843WAT      O 2930   4.762   0.038   4.713  0.1984  0.4413 -0.0093
  843WAT     H1 2931   4.685  -0.008   4.745  0.2097  1.6853  1.9993
  843WAT     H2 2932   4.730   0.091   4.640 -0.5191 -0.1495 -0.1375
  844WAT      O 2933   5.720   4.323   3.658  0.0715 -0.5900  0.2153
  844WAT     H1 2934   5.810   4.356   3.651 -0.2908  0.4981  0.3529
  844WAT     H2 2935   5.702   4.325   3.752 -0.5607  0.5603  0.0839
  845WAT      O 2936   3.833   4.057   2.002  0.2664  0.0579  0.3492
  845WAT     H1 2937   3.825   3.982   2.061 -1.1128 -1.2975 -1.4230
  845WAT     H2 2938   3.785   4.128   2.045  0.8399 -0.3355  1.6578
  846WAT      O 2939   0.541   1.778   5.917 -0.5026 -0.2625  0.9726
  846WAT     H1 2940   0.513   1.769   5.826  0.0863 -0.0137  0.7656
  846WAT     H2 2941   0.459   1.785   5.967 -0.8146  1.1466  0.3068
  847WAT      O 2942   4.509   2.501   5.993  0.5178  0.5550 -0.4441
  847WAT     H1 2943   4.495   2.587   5.954  1.1517  1.4249  1.1302
  847WAT     H2 2944   4.518   2.519   6.087 -1.3005 -1.4422  0.2097
  848WAT      O 2945   1.874   2.568   2.225  0.0282 -0.5260  0.0922
  848WAT     H1 2946   1.932   2.575   2.301  2.0957  0.8557 -1.4930
  848WAT     H2 2947   1.933   2.564   2.150 -1.9040 -2.4345 -1.4790
  849WAT      O 2948   2.857   5.439   1.860  0.1053 -0.0225  0.0199
  849WAT     H1 2949   2.951   5.458   1.861 -0.0637  0.8147  0.7891
  849WAT     H2 2950   2.838   5.402   1.946 -0.4259  0.6382  0.1963
  850WAT      O 2951   0.510   0.023   4.949  0.1445  0.2462  0.0594
  850WAT     H1 2952   0.511  -0.073   4.940  0.0550  0.1587  0.9005
  850WAT     H2 2953   0.436   0.040   5.008 -1.5071  1.0308 -2.1163
  851WAT      O 2954   3.047   4.953   1.640 -0.4118 -0.2600  0.3425
  851WAT     H1 2955   3.069   5.041   1.610  0.5607 -0.7521 -0.4543
  851WAT     H2 2956   3.073   4.953   1.733 -1.2561  0.5518  0.5904
  852WAT      O 2957   5.819   3.973   2.358 -0.5616  0.1180  0.0642
  852WAT     H1 2958   5.841   3.921   2.435  0.1067  1.0545  0.5270
  852WAT     H2 2959   5.828   3.913   2.284  1.6513 -0.0623  0.4338
  853WAT      O 2960   0.800   4.314   2.616 -0.4579  0.2345 -0.1081
  853WAT     H1 2961   0.887   4.286   2.646 -0.0886  0.4236 -0.9801
  853WAT     H2 2962   0.808   4.408   2.603 -0.8576  0.2860 -0.0007
  854WAT      O 2963   2.523   2.944   2.495 -0.4922 -0.6124 -0.1499
  854WAT     H1 2964   2.616   2.923   2.495 -0.7726 -1.9645 -0.7678
  854WAT     H2 2965   2.519   3.039   2.496  0.9009 -0.5298 -0.8523
  855WAT      O 2966   7.245   2.132   2.702 -0.0776 -0.3463 -0.7752
  855WAT     H1 2967   7.197   2.050   2.698 -0.0792 -0.5346  1.5929
  855WAT     H2 2968   7.337   2.106   2.703 -0.0491 -0.2565 -0.9955
  856WAT      O 2969   6.107   3.111   1.710  0.0856 -0.1410 -0.1233
  856WAT     H1 2970   6.117   3.190   1.657 -0.2753  0.2327  0.3534
  856WAT     H2 2971   6.144   3.041   1.656 -0.7589  0.1419 -1.1037
  857WAT      O 2972   5.262   5.025   6.194  0.0096  0.1486 -0.1998
  857WAT     H1 2973   5.201   4.975   6.249 -2.2999 -0.2161 -2.8519
  857WAT     H2 2974   5.346   4.981   6.206 -0.2160  0.3646  3.2342
  858WAT      O 2975   6.243   6.670   0.184 -0.4432  0.2298  0.0520
  858WAT     H1 2976   6.270   6.762   0.185 -0.0038  0.1237 -1.0632
  858WAT     H2 2977   6.164   6.669   0.130 -0.9971  0.0815  0.8471
  859WAT      O 2978   0.374   5.283   1.854 -0.3272 -0.3188  0.6551
  859WAT     H1 2979   0.347   5.374   1.836 -0.7811 -0.5262  0.2736
  859WAT     H2 2980   0.331   5.232   1.786 -1.8253 -1.0960  2.1306
  860WAT      O 2981   3.819   7.006   0.749  0.4224  0.4165  0.0733
  860WAT     H1 2982   3.862   7.039   0.669  1.5875 -0.3935  0.3418
  860WAT     H2 2983   3.871   7.043   0.821  2.2412 -2.4057  0.3990
  861WAT      O 2984   2.729   4.913   2.730  0.4514 -0.2184 -0.3564
  861WAT     H1 2985   2.772   4.965   2.797 -0.6578  0.0954  0.1277
  861WAT     H2 2986   2.762   4.824   2.743 -0.9880 -0.5272  1.7370
  862WAT      O 2987   5.346   6.223   1.594  0.1423  0.5771  0.3543
  862WAT     H1 2988   5.386   6.188   1.673  2.5448 -0.3319 -1.1550
  862WAT     H2 2989   5.296   6.149   1.559  0.4305  0.4635  0.1803
  863WAT      O 2990   7.439   5.622   2.303  0.4092 -0.1356  0.2622
  863WAT     H1 2991   7.489   5.687   2.351  0.6546 -0.9704  1.1699
  863WAT     H2 2992   7.388   5.576   2.370  0.0167 -0.6887 -0.3918
  864WAT      O 2993   5.789   1.054   4.685  0.2288  0.2005 -0.2576
  864WAT     H1 2994   5.808   1.060   4.779  1.4865 -0.4572 -0.4559
  864WAT     H2 2995   5.701   1.092   4.677 -0.7582 -1.5309  1.4530
  865WAT      O 2996   4.423   4.913   2.912  0.2331  0.1370 -0.2175
  865WAT     H1 2997   4.390   4.823   2.916 -1.0761  0.6161  0.0316
  865WAT     H2 2998   4.479   4.915   2.834  0.4196 -0.9314 -0.1228
  866WAT      O 2999   5.992   7.116   3.732  0.5063 -0.9601 -0.1659
  866WAT     H1 3000   6.000   7.083   3.821 -0.4887 -0.5937  0.0715
  866WAT     H2 3001   6.051   7.191   3.728 -0.3081 -0.2705  0.5423
  867WAT      O 3002   3.149   7.138   3.413  0.6601  0.2609 -0.0078
  867WAT     H1 3003   3.097   7.139   3.494 -0.4029 -0.4131 -0.6603
  867WAT     H2 3004   3.172   7.229   3.397  0.2045  0.4901  0.6230
  868WAT      O 3005   2.935   1.486   2.530 -0.6346 -0.3721  0.4621
  868WAT     H1 3006   3.023   1.482   2.566 -0.9976 -0.1149  1.4233
  868WAT     H2 3007   2.879   1.502   2.606 -1.5035 -0.4840 -0.1379
  869WAT      O 3008   1.108   2.398   2.500  0.3213 -0.1271  0.3804
  869WAT     H1 3009   1.089   2.464   2.566 -0.6366  0.5433 -0.5237
  869WAT     H2 3010   1.066   2.319   2.532  1.5297 -0.3550  1.5033
  870WAT      O 3011   6.605   4.242   4.124  0.0092  0.2285  0.1450
  870WAT     H1 3012   6.654   4.255   4.043  2.0424 -0.9784  1.1124
  870WAT     H2 3013   6.655   4.288   4.191  0.0481 -1.2937  1.2127
  871WAT      O 3014   6.631   1.611   5.842  0.7174  0.2243 -0.1848
  871WAT     H1 3015   6.557   1.663   5.874  0.9143  1.2596 -1.3798
  871WAT     H2 3016   6.676   1.667   5.779  1.6998 -0.9170 -0.5475
  872WAT      O 3017   3.545   6.574   0.030 -0.3497  0.0057 -0.3712
  872WAT     H1 3018   3.458   6.535   0.036 -0.5906  0.7224  1.2868
  872WAT     H2 3019   3.577   6.577   0.120  1.6183 -0.6969 -0.9900
  873WAT      O 3020   0.200   1.133   4.851 -0.3213  0.1846 -0.1537
  873WAT     H1 3021   0.132   1.079   4.892 -1.1268  1.4265  0.1952
  873WAT     H2 3022   0.187   1.220   4.889 -0.9130  1.3322 -2.7643
  874WAT      O 3023   5.546   6.916   3.017  0.1051 -0.1847  0.1582
  874WAT     H1 3024   5.626   6.968   3.006  2.2062 -3.1638  0.0535
  874WAT     H2 3025   5.545   6.893   3.110 -0.4012 -0.4755  0.0847
  875WAT      O 3026   5.627   5.519   2.939  0.6323 -0.0711  0.0224
  875WAT     H1 3027   5.714   5.494   2.969 -0.3351 -2.4253  1.0888
  875WAT     H2 3028   5.570   5.506   3.015 -0.5719  2.3579 -0.3367
  876WAT      O 3029   2.252   6.436   1.906  0.1289  0.2825 -0.0621
  876WAT     H1 3030   2.190   6.445   1.979  0.4814  1.7485  0.0986
  876WAT     H2 3031   2.294   6.522   1.900  1.9112 -0.5663 -0.3937
  877WAT      O 3032   7.471   3.979   2.907 -0.3496 -0.2513  0.0167
  877WAT     H1 3033   7.382   3.953   2.931 -0.2347 -1.2824 -0.5948
  877WAT     H2 3034   7.459   4.055   2.851 -0.7194  0.9050  1.6067
  878WAT      O 3035   2.784   0.320   4.284 -0.1707  0.1783  0.2577
  878WAT     H1 3036   2.815   0.408   4.264  0.4839  0.8188  3.5383
  878WAT     H2 3037   2.690   0.324   4.271 -0.1763  1.4557  0.5500
  879WAT      O 3038   6.042   0.691   3.248 -0.0112 -0.5359  0.3551
  879WAT     H1 3039   6.049   0.698   3.343  0.8260  1.3775  0.2021
  879WAT     H2 3040   6.130   0.710   3.216 -0.6717  0.6588 -0.8508
  880WAT      O 3041   3.136   6.366   2.406 -0.6807  0.3423  0.1995
  880WAT     H1 3042   3.121   6.460   2.393  0.3039  0.4173 -0.4432
  880WAT     H2 3043   3.115   6.351   2.499 -2.3327  0.8877 -0.0444
  881WAT      O 3044   1.446   1.610   6.076  0.2065 -0.4559 -0.2913
  881WAT     H1 3045   1.485   1.621   6.163  0.1072  0.3607 -0.3432
  881WAT     H2 3046   1.455   1.517   6.058  0.9161 -0.5102  0.2736
  882WAT      O 3047   7.357   0.082   5.957  0.2500  0.1635  0.5553
  882WAT     H1 3048   7.438   0.098   5.909 -0.2682 -0.8082 -0.6769
  882WAT     H2 3049   7.371  -0.003   6.000 -0.3716 -0.3596 -0.2533
  883WAT      O 3050   1.711   0.760   3.910  0.0696 -0.2166 -0.1395
  883WAT     H1 3051   1.728   0.701   3.837  0.7403  0.1330 -0.2782
  883WAT     H2 3052   1.713   0.847   3.872 -2.8649 -0.1445 -0.3017
  884WAT      O 3053   2.742   1.490   1.627  0.2381 -0.3955  0.2543
  884WAT     H1 3054   2.658   1.534   1.613  1.1112  1.6660  1.0843
  884WAT     H2 3055   2.742   1.467   1.720  0.6750 -0.1613  0.3151
  885WAT      O 3056   1.746   6.143   4.891 -0.8519 -0.1669 -0.1671
  885WAT     H1 3057   1.815   6.193   4.933  0.7423 -2.6411  0.4131
  885WAT     H2 3058   1.753   6.056   4.931 -1.9617 -1.4836 -2.6483
  886WAT      O 3059   6.220   2.600   4.943 -0.1793  0.5134  0.4562
  886WAT     H1 3060   6.303   2.584   4.988  0.4944  1.4447 -0.4089
  886WAT     H2 3061   6.163   2.638   5.010 -0.4254 -1.4529  1.4365
  887WAT      O 3062   3.233   0.922   5.257 -0.2740  0.2545 -0.1021
  887WAT     H1 3063   3.324   0.903   5.278 -0.4271 -3.0134 -1.8616
  887WAT     H2 3064   3.237   0.997   5.198  1.0041  1.6711  1.6515
  888WAT      O 3065   4.306   2.821   6.148  0.2379 -0.1884  0.1946
  888WAT     H1 3066   4.298   2.753   6.215  1.9729 -0.6103  0.0367
  888WAT     H2 3067   4.276   2.901   6.190 -2.4741 -1.1107  0.1885
  889WAT      O 3068   2.826   0.826   4.538 -0.1765  0.2023  0.3956
  889WAT     H1 3069   2.822   0.747   4.591 -1.9508  0.7582  1.1599
  889WAT     H2 3070   2.778   0.891   4.588 -0.7850  1.1235 -1.2903
  890WAT      O 3071   6.209   6.225   3.319  0.2786 -0.1070 -0.2170
  890WAT     H1 3072   6.141   6.189   3.376  0.9880  0.2648  0.9126
  890WAT     H2 3073   6.285   6.168   3.335  1.1187  1.2540  0.8323
  891WAT      O 3074   1.440   0.584   3.810  0.0301  0.2826 -0.0041
  891WAT     H1 3075   1.456   0.678   3.807 -0.9657  0.4581 -0.4092
  891WAT     H2 3076   1.454   0.554   3.720 -0.0962  0.1242  0.0283
  892WAT      O 3077   1.713   6.085   2.286 -0.0811  0.1696 -0.0433
  892WAT     H1 3078   1.746   6.125   2.367  0.7443  0.0327 -0.3076
  892WAT     H2 3079   1.751   5.997   2.285  2.0016  0.9934 -1.7976
  893WAT      O 3080   4.813   0.546   3.435  0.3259  0.5708 -0.3892
  893WAT     H1 3081   4.862   0.533   3.354 -1.8512 -1.0478 -1.5357
  893WAT     H2 3082   4.876   0.525   3.505  2.1707  1.7503 -1.6090
  894WAT      O 3083   6.050   1.489   5.923  0.2951  0.4058 -0.3067
  894WAT     H1 3084   5.972   1.451   5.963  0.0688  0.9967 -0.1837
  894WAT     H2 3085   6.029   1.581   5.912  0.0589  0.1493 -2.4455
  895WAT      O 3086   4.042   1.238   1.666  0.1463 -0.1127  0.5777
  895WAT     H1 3087   4.016   1.181   1.594 -1.3773 -0.3579  1.2852
  895WAT     H2 3088   4.057   1.179   1.740 -0.3622  0.2867  1.0175
  896WAT      O 3089   1.113   2.971   2.927 -0.4062 -0.0956 -0.3502
  896WAT     H1 3090   1.184   3.029   2.953 -2.9772  3.3072 -0.2389
  896WAT     H2 3091   1.047   2.982   2.996 -1.2491 -2.8628 -0.6036
  897WAT      O 3092   5.609   6.823   0.826 -0.3674 -0.0135 -0.2736
  897WAT     H1 3093   5.527   6.800   0.870 -1.0183  2.1048 -0.2651
  897WAT     H2 3094   5.676   6.818   0.895 -0.8284  0.1130  0.1899
  898WAT      O 3095   6.595   1.804   3.286 -0.4824 -0.3690 -1.1591
  898WAT     H1 3096   6.634   1.778   3.370 -0.7380 -2.8771 -1.7476
  898WAT     H2 3097   6.515   1.852   3.311 -1.0246 -1.8247  0.0803
  899WAT      O 3098   3.022   1.704   6.066  0.2190 -0.0745 -0.4277
  899WAT     H1 3099   2.996   1.760   6.140  0.7217  1.6019 -1.4668
  899WAT     H2 3100   2.959   1.632   6.067 -1.2747  1.1943  0.1792
  900WAT      O 3101   3.086   4.588   0.161 -0.3713  0.0255  0.2147
  900WAT     H1 3102   3.149   4.516   0.163  0.7463  0.9363  2.7485
  900WAT     H2 3103   3.000   4.546   0.161  0.2366 -1.2714 -0.0658
  901WAT      O 3104   1.779   1.453   3.054 -0.4930  0.3715  0.1641
  901WAT     H1 3105   1.783   1.480   3.146 -0.7515  0.3276  0.1876
  901WAT     H2 3106   1.856   1.397   3.043  0.2211  1.3678  0.0285
  902WAT      O 3107   0.666   1.342   1.588  0.4192  0.2912 -0.0509
  902WAT     H1 3108   0.630   1.316   1.503  0.5389 -0.0751  0.0093
  902WAT     H2 3109   0.752   1.378   1.569  0.7561 -0.4910 -0.0038
  903WAT      O 3110   6.117   6.755   2.292  0.1349 -0.0704  0.0453
  903WAT     H1 3111   6.041   6.794   2.335  0.0795 -0.9874  0.7938
  903WAT     H2 3112   6.151   6.825   2.236  0.6125  1.3874  2.0471
  904WAT      O 3113   4.700   2.544   5.143 -0.0597  0.6775  0.4135
  904WAT     H1 3114   4.607   2.566   5.133 -0.2341  0.2197  0.9456
  904WAT     H2 3115   4.744   2.596   5.076 -0.6009  1.5964  0.7359
  905WAT      O 3116   0.005   3.435   5.663 -0.8536  0.0319  0.0680
  905WAT     H1 3117  -0.031   3.394   5.741 -0.9799 -0.2843 -0.1517
  905WAT     H2 3118   0.085   3.386   5.645  0.0659  1.1515  0.9341
  906WAT      O 3119   0.996   5.647   4.249  0.1366  0.5570  0.0619
  906WAT     H1 3120   1.023   5.739   4.258 -0.5522  0.7188  0.5716
  906WAT     H2 3121   1.008   5.610   4.336 -0.5828  0.4530  0.1278
  907WAT      O 3122   7.608   6.031   3.007  0.2296  0.6370  0.4217
  907WAT     H1 3123   7.624   6.124   2.989  0.1918  0.8603  1.4374
  907WAT     H2 3124   7.574   6.030   3.097 -0.9417 -0.2518 -0.0095
  908WAT      O 3125   2.089   4.425   1.958 -0.5379  0.0431 -0.0268
  908WAT     H1 3126   2.003   4.462   1.938 -1.2503 -1.7925 -0.6164
  908WAT     H2 3127   2.099   4.352   1.897  0.1832 -1.5479  1.8430
  909WAT      O 3128   3.630   5.219   4.899 -0.1186  0.4707  0.1268
  909WAT     H1 3129   3.558   5.275   4.869  0.2807  0.4409 -0.9378
  909WAT     H2 3130   3.707   5.275   4.894  0.6533 -0.6469 -2.9300
  910WAT      O 3131   2.267   2.518   2.501  0.5263 -0.2144 -0.8388
  910WAT     H1 3132   2.181   2.481   2.519 -0.3265  1.3327 -1.4972
  910WAT     H2 3133   2.323   2.443   2.481 -1.0188 -1.1555 -1.7660
  911WAT      O 3134   5.014   3.504   4.239 -1.3309  0.1069  0.2026
  911WAT     H1 3135   4.938   3.469   4.192 -1.5251  0.3693  0.3188
  911WAT     H2 3136   5.053   3.428   4.282 -1.0853 -0.1544 -0.4772
  912WAT      O 3137   4.739   3.115   3.781  0.6325 -0.0350  0.4551
  912WAT     H1 3138   4.803   3.047   3.760  1.9600  1.1062  0.6285
  912WAT     H2 3139   4.676   3.072   3.838  0.8026 -1.3937 -0.3395
  913WAT      O 3140   5.540   3.866   2.945  0.2358 -0.0831  0.2061
  913WAT     H1 3141   5.514   3.893   2.857 -1.0285 -1.0773  0.2370
  913WAT     H2 3142   5.511   3.937   3.001 -0.1193 -0.0209 -0.0495
  914WAT      O 3143   0.322   1.791   1.308  0.6195  0.3272 -0.5778
  914WAT     H1 3144   0.372   1.709   1.312  2.1331  1.2536  1.2790
  914WAT     H2 3145   0.362   1.839   1.235 -0.1935 -0.5028 -1.5940
  915WAT      O 3146   7.138   3.830   3.662 -0.1909 -0.1071 -0.0105
  915WAT     H1 3147   7.188   3.852   3.583  1.0175 -0.8782  0.5216
  915WAT     H2 3148   7.181   3.752   3.697 -2.4411 -1.4812 -0.1256
  916WAT      O 3149   3.226   4.534   5.495  0.1497 -0.4698  0.3880
  916WAT     H1 3150   3.171   4.547   5.572  1.0612  0.2481  0.9367
  916WAT     H2 3151   3.186   4.460   5.449 -0.5046 -0.7995  1.4566
  917WAT      O 3152   2.127   1.303   5.472 -0.2758 -0.3070 -0.3336
  917WAT     H1 3153   2.151   1.388   5.511 -0.9436  0.3627 -1.3369
  917WAT     H2 3154   2.068   1.326   5.401  1.1281 -1.4618 -1.9295
  918WAT      O 3155   5.957   2.085   0.803 -0.4288 -0.2685 -0.0805
  918WAT     H1 3156   5.990   2.114   0.888  1.4477 -1.0354 -0.4958
  918WAT     H2 3157   5.900   2.011   0.824 -0.2504 -0.2380  0.5351
  919WAT      O 3158   0.462   5.030   6.158 -0.0879  0.0606  0.5578
  919WAT     H1 3159   0.514   4.950   6.169 -0.2292 -0.5896 -2.6324
  919WAT     H2 3160   0.515   5.086   6.102 -2.5315 -0.5289 -2.6208
  920WAT      O 3161   4.603   2.394   0.836  0.0657 -0.2917  0.2240
  920WAT     H1 3162   4.562   2.369   0.918 -0.8929 -2.2760 -0.7852
  920WAT     H2 3163   4.530   2.403   0.774  0.7914  0.7753 -0.5295
  921WAT      O 3164   6.638   5.276   2.481  0.3633 -1.0534  0.4655
  921WAT     H1 3165   6.661   5.337   2.551 -1.8365  0.0139  0.3311
  921WAT     H2 3166   6.582   5.211   2.523 -0.4859 -0.7442 -0.1640
  922WAT      O 3167   0.025   4.000   4.479 -0.1507 -0.0111 -0.0103
  922WAT     H1 3168   0.089   4.071   4.482 -1.3302  1.0631  0.4255
  922WAT     H2 3169  -0.051   4.034   4.525 -0.9968 -1.3204 -0.3875
  923WAT      O 3170   7.093   2.174   1.305 -0.5261 -0.4719  0.2094
  923WAT     H1 3171   7.009   2.128   1.310 -0.2175 -1.3031 -1.5033
  923WAT     H2 3172   7.148   2.129   1.369 -0.3478 -2.3379 -1.1509
  924WAT      O 3173   3.414   5.064   3.306  0.2801 -0.0314  0.1628
  924WAT     H1 3174   3.415   4.968   3.297 -0.3199 -0.0287  0.0595
  924WAT     H2 3175   3.323   5.088   3.293  0.4413  0.5647  0.1307
  925WAT      O 3176   6.555   0.866   0.546 -0.2963 -0.1498  0.4201
  925WAT     H1 3177   6.472   0.852   0.593 -0.5962 -0.2454 -0.1299
  925WAT     H2 3178   6.597   0.937   0.594 -1.3405  0.8707 -0.1122
  926WAT      O 3179   7.611   1.225   5.720  0.1179 -0.1494 -0.1688
  926WAT     H1 3180   7.697   1.194   5.692  1.0626  0.3000  1.9830
  926WAT     H2 3181   7.562   1.146   5.741  0.1158 -0.3969 -1.0829
  927WAT      O 3182   5.887   0.934   1.967 -0.0461 -0.0034  0.1062
  927WAT     H1 3183   5.928   0.918   2.051 -1.8522  1.4864  1.3576
  927WAT     H2 3184   5.927   1.015   1.935 -0.3242  0.1656  0.1846
  928WAT      O 3185   1.777   1.406   5.640 -0.0878 -0.5927  0.5648
  928WAT     H1 3186   1.724   1.474   5.597  0.8805 -0.1415  0.0546
  928WAT     H2 3187   1.743   1.324   5.605 -1.4962 -0.4113  1.4391
  929WAT      O 3188   2.448   0.834   2.998 -0.1832 -0.4011 -0.0517
  929WAT     H1 3189   2.406   0.856   2.915  0.6610 -0.5283 -0.5248
  929WAT     H2 3190   2.497   0.754   2.980 -0.1981 -0.5749  0.6425
  930WAT      O 3191   3.175   1.868   3.382 -0.2911  0.3462 -0.2175
  930WAT     H1 3192   3.243   1.903   3.325  1.2829 -1.2698  0.5450
  930WAT     H2 3193   3.146   1.788   3.338 -0.4135  0.0949  0.3100
  931WAT      O 3194   3.203   0.962   0.737 -0.0097 -0.4830  0.1671
  931WAT     H1 3195   3.228   1.025   0.668 -0.1008 -1.2748 -0.6054
  931WAT     H2 3196   3.254   0.988   0.813 -0.7056  1.0897  0.1441
  932WAT      O 3197   3.536   4.266   2.264  0.2798 -0.0320 -0.0564
  932WAT     H1 3198   3.541   4.325   2.189 -0.5876 -0.2194 -0.2733
  932WAT     H2 3199   3.495   4.318   2.333  1.1444  0.1634  0.3239
  933WAT      O 3200   0.848   4.072   1.103  0.0094  0.6098 -0.5240
  933WAT     H1 3201   0.916   4.113   1.156 -0.4603 -0.1535  0.7388
  933WAT     H2 3202   0.814   4.142   1.047  1.4752  1.1064 -0.8193
  934WAT      O 3203   1.218   3.811   6.086  0.3077 -0.7253  0.0135
  934WAT     H1 3204   1.196   3.895   6.046  0.9139  0.0545  1.2645
  934WAT     H2 3205   1.178   3.746   6.028  0.1050  0.4002 -1.1549
  935WAT      O 3206   0.477   3.938   0.246  0.1874 -0.4621  0.1307
  935WAT     H1 3207   0.477   3.882   0.323  0.0069 -0.6201  0.0182
  935WAT     H2 3208   0.430   4.017   0.274  0.4999 -0.3413  0.3083
  936WAT      O 3209   3.136   0.163   5.296  0.0896  0.2789  0.3947
  936WAT     H1 3210   3.149   0.196   5.385  0.4872 -2.1809  1.3276
  936WAT     H2 3211   3.056   0.206   5.266  0.1032  1.3822  1.8135
  937WAT      O 3212   0.993   3.178   1.185  0.4282  0.6888 -0.3058
  937WAT     H1 3213   0.974   3.241   1.254 -0.4649  0.8959 -0.7308
  937WAT     H2 3214   1.060   3.121   1.223  2.1447  2.5645 -0.3177
  938WAT      O 3215   4.423   0.214   2.884  0.5667  0.0263 -0.1701
  938WAT     H1 3216   4.383   0.166   2.957 -1.1793 -0.0903 -1.1435
  938WAT     H2 3217   4.487   0.272   2.925 -0.4587  0.0520  1.4685
  939WAT      O 3218   3.665   3.824   1.521  0.1497 -0.1357  0.2595
  939WAT     H1 3219   3.687   3.734   1.498  0.2473  0.2229 -1.1247
  939WAT     H2 3220   3.691   3.832   1.613  3.0265 -0.6129 -0.4116
  940WAT      O 3221   2.600   0.742   3.379 -0.4516 -0.6651 -0.0249
  940WAT     H1 3222   2.673   0.779   3.429  1.0724 -1.5260 -1.5190
  940WAT     H2 3223   2.581   0.808   3.312 -1.1890 -0.3562  0.4830
  941WAT      O 3224   3.642   0.512   0.364 -0.1838  0.2395  0.4677
  941WAT     H1 3225   3.595   0.444   0.412 -2.4267 -0.5963 -2.5789
  941WAT     H2 3226   3.576   0.581   0.350  0.2562  0.3201 -1.5151
  942WAT      O 3227   0.569   2.195   5.995 -0.0101  0.1351  0.0527
  942WAT     H1 3228   0.655   2.201   5.955 -0.1399  0.2031 -0.2218
  942WAT     H2 3229   0.585   2.157   6.082  0.2720 -0.0395 -0.0738
  943WAT      O 3230   0.140   2.129   1.987 -0.7499 -0.2319  0.0238
  943WAT     H1 3231   0.226   2.117   1.948 -0.9347 -0.4708 -0.3027
  943WAT     H2 3232   0.158   2.175   2.070 -0.2953 -0.4447  0.0447
  944WAT      O 3233   5.451   3.074   3.156  0.5309  0.2654 -0.2749
  944WAT     H1 3234   5.470   2.987   3.192 -0.6580  0.6145  1.3248
  944WAT     H2 3235   5.504   3.134   3.209  1.0571  0.5545 -1.1189
  945WAT      O 3236   1.193   0.945   5.762 -0.1262  0.0194  0.4553
  945WAT     H1 3237   1.210   1.010   5.694 -2.5379  2.3967  1.9311
  945WAT     H2 3238   1.207   0.861   5.719  0.1245  1.4317 -2.4637
  946WAT      O 3239   1.994   3.140   0.091 -0.1976 -0.3771  0.0568
  946WAT     H1 3240   2.044   3.217   0.118  0.9687 -0.7227 -1.0527
  946WAT     H2 3241   1.978   3.093   0.173  0.5239  0.1897  0.5416
  947WAT      O 3242   0.917   2.157   0.693  0.1239  0.0499 -0.9184
  947WAT     H1 3243   0.884   2.155   0.783 -0.7724 -0.2350 -1.2427
  947WAT     H2 3244   0.992   2.098   0.694  0.8883  1.0016 -0.0743
  948WAT      O 3245   6.742   6.355   3.937 -0.3846 -0.0469  0.3556
  948WAT     H1 3246   6.648   6.343   3.925 -0.7878  2.0047  1.1472
  948WAT     H2 3247   6.759   6.322   4.026 -0.1967 -1.0249 -0.0232
  949WAT      O 3248   5.286   2.851   4.226  0.3090  0.2271 -0.3190
  949WAT     H1 3249   5.307   2.786   4.294  0.6289  1.5533  0.8987
  949WAT     H2 3250   5.191   2.857   4.227  0.3343  0.6013  0.3804
  950WAT      O 3251   4.157   5.956   1.101  0.0536 -0.3560  0.2809
  950WAT     H1 3252   4.218   5.986   1.034 -0.3624  2.0840  0.8980
  950WAT     H2 3253   4.205   5.967   1.183 -0.8850  0.7847  0.7001
  951WAT      O 3254   4.205   0.611   0.052  0.4336 -0.1396  0.3331
  951WAT     H1 3255   4.206   0.616   0.148 -0.4752  0.1319  0.3308
  951WAT     H2 3256   4.246   0.693   0.024 -1.4818  0.9148  0.4770
  952WAT      O 3257   0.753   1.691   4.745  0.2279 -0.4606 -0.4487
  952WAT     H1 3258   0.697   1.684   4.822  0.3442 -0.1313 -0.3308
  952WAT     H2 3259   0.834   1.730   4.778  0.7763 -1.5210 -0.4943
  953WAT      O 3260   7.499   0.237   5.127 -0.1639  0.5074  0.3546
  953WAT     H1 3261   7.448   0.229   5.207 -0.9018 -0.1046 -0.1609
  953WAT     H2 3262   7.550   0.157   5.122 -0.6009  0.2546 -0.1090
  954WAT      O 3263   7.201   0.559   3.752  0.0694 -0.2721  0.2376
  954WAT     H1 3264   7.235   0.490   3.810  0.4346 -2.2691 -2.1552
  954WAT     H2 3265   7.130   0.599   3.801  1.7249 -0.3386  2.8850
  955WAT      O 3266   4.268   0.484   0.861  0.1864  0.5050 -0.1437
  955WAT     H1 3267   4.303   0.548   0.923  3.8608 -1.2287 -0.1191
  955WAT     H2 3268   4.287   0.521   0.775 -0.7470  0.8964 -0.1871
  956WAT      O 3269   5.352   2.222   3.966 -0.0532  0.2332 -0.7189
  956WAT     H1 3270   5.369   2.152   4.029 -1.5593  2.6771  2.7224
  956WAT     H2 3271   5.257   2.236   3.971  0.2944  3.0988 -0.4908
  957WAT      O 3272   5.632   5.120   2.762  0.2706 -0.1163 -0.0953
  957WAT     H1 3273   5.663   5.073   2.685  0.0567  0.0567 -0.2907
  957WAT     H2 3274   5.711   5.141   2.812  0.4126 -0.1885 -0.2901
  958WAT      O 3275   7.308   3.209   3.890  0.3133  0.0882 -0.2654
  958WAT     H1 3276   7.315   3.225   3.796  1.3412  0.0680 -0.2031
  958WAT     H2 3277   7.397   3.219   3.923  0.2449 -1.3969  0.4604
  959WAT      O 3278   2.560   6.504   5.663  0.3441  0.0856  0.2314
  959WAT     H1 3279   2.543   6.419   5.704  0.4374 -0.1113 -0.1269
  959WAT     H2 3280   2.503   6.505   5.586  0.5955  0.1994  0.0432
  960WAT      O 3281   7.585   6.333   0.684  0.1884  0.1296 -0.0669
  960WAT     H1 3282   7.532   6.353   0.761  1.2333 -0.1686  0.7506
  960WAT     H2 3283   7.585   6.413   0.632 -1.4766 -0.0219 -0.3586
  961WAT      O 3284   4.938   3.127   4.906  0.3355  0.3815  0.3136
  961WAT     H1 3285   4.865   3.084   4.861  1.1227  0.8361 -1.5037
  961WAT     H2 3286   4.897   3.199   4.955 -0.7053 -0.9544  1.4711
  962WAT      O 3287   4.772   1.961   5.225  0.2080  0.0032 -0.1080
  962WAT     H1 3288   4.842   1.985   5.285 -0.1359  0.3268  0.1671
  962WAT     H2 3289   4.725   1.891   5.270  0.1860 -0.0260 -0.1759
  963WAT      O 3290   4.100   2.695   5.754 -0.2814 -0.2946  0.3034
  963WAT     H1 3291   4.082   2.722   5.664  2.7646  0.9290 -0.0800
  963WAT     H2 3292   4.144   2.610   5.745 -0.9907 -0.7131  0.7436
  964WAT      O 3293   1.754   4.451   5.702 -0.2860 -0.0965 -0.0715
  964WAT     H1 3294   1.816   4.434   5.773  0.2697 -2.5217 -1.0221
  964WAT     H2 3295   1.668   4.450   5.745  0.1461  0.3182  0.8220
  965WAT      O 3296   1.098   4.865   5.687 -0.4255 -0.7217  0.0211
  965WAT     H1 3297   1.057   4.803   5.747  0.6574  0.2501  1.8822
  965WAT     H2 3298   1.102   4.947   5.737 -0.1794  0.3601 -1.6930
  966WAT      O 3299   6.285   1.294   2.392  0.3325  0.4021 -0.3382
  966WAT     H1 3300   6.282   1.356   2.319  0.8186  1.9068  0.8783
  966WAT     H2 3301   6.373   1.257   2.389 -0.4059 -1.4164 -1.9516
  967WAT      O 3302   4.642   0.618   5.533  0.3006  0.0634 -0.5320
  967WAT     H1 3303   4.568   0.678   5.542  2.3390  2.9414 -1.2295
  967WAT     H2 3304   4.643   0.569   5.615 -2.4731 -0.2637 -0.6239
  968WAT      O 3305   6.383   1.358   0.184 -0.2721  0.2706  0.2489
  968WAT     H1 3306   6.461   1.374   0.130  1.4177  0.7173  2.6523
  968WAT     H2 3307   6.382   1.263   0.196  1.2754  0.4007  1.9567
  969WAT      O 3308   7.350   2.706   1.040 -0.2596  0.1571 -0.1881
  969WAT     H1 3309   7.412   2.674   1.106  1.2889 -1.5178 -2.2953
  969WAT     H2 3310   7.390   2.786   1.006 -0.1018  0.0008 -0.3728
  970WAT      O 3311   3.944   7.087   1.673  0.0537  0.2887 -0.3959
  970WAT     H1 3312   4.025   7.125   1.639  0.9641 -1.4901 -0.2833
  970WAT     H2 3313   3.935   7.123   1.761  1.6381 -0.7870  0.2337
  971WAT      O 3314   2.171   4.029   3.681  0.1485  0.1679  0.2766
  971WAT     H1 3315   2.121   3.969   3.737 -1.1083  0.8539 -0.0817
  971WAT     H2 3316   2.253   3.983   3.666 -1.1192 -1.9237 -0.7488
  972WAT      O 3317   0.110   3.427   0.437  0.0278 -0.4746 -0.0850
  972WAT     H1 3318   0.040   3.434   0.373 -0.4320 -0.3077  0.4285
  972WAT     H2 3319   0.120   3.516   0.472  0.4629 -0.5072 -0.1122
  973WAT      O 3320   3.122   4.030   1.512 -0.7089  0.1626  0.2748
  973WAT     H1 3321   3.165   4.115   1.502  0.9216 -0.6480  0.1451
  973WAT     H2 3322   3.068   4.040   1.591  0.1076  1.0556  0.7375
  974WAT      O 3323   0.604   6.859   3.915  0.5707 -0.0881 -0.2554
  974WAT     H1 3324   0.563   6.803   3.981  0.4521  0.5651  0.2292
  974WAT     H2 3325   0.697   6.855   3.934  0.5168  0.2718  0.0873
  975WAT      O 3326   2.179   2.428   4.547  0.1045 -0.1584  0.1694
  975WAT     H1 3327   2.190   2.365   4.618  2.3648  1.5494  1.4576
  975WAT     H2 3328   2.147   2.507   4.590  1.9549  1.0512 -0.5603
  976WAT      O 3329   4.532   4.062   2.736 -0.3503 -0.0725 -0.1255
  976WAT     H1 3330   4.458   4.015   2.775 -1.1364  0.7452 -0.5786
  976WAT     H2 3331   4.608   4.030   2.784 -1.2484  0.7207  1.9705
  977WAT      O 3332   6.924   0.249   4.838  0.2019  0.1582  0.2775
  977WAT     H1 3333   6.923   0.243   4.934 -1.0160 -2.0228  0.2136
  977WAT     H2 3334   7.009   0.286   4.817  0.8306 -0.0800  2.1937
  978WAT      O 3335   0.669   4.426   1.695  0.0823 -0.2468 -0.7175
  978WAT     H1 3336   0.647   4.446   1.786 -2.0418 -0.4118 -1.1256
  978WAT     H2 3337   0.702   4.337   1.697  0.3067 -0.1541 -0.0688
  979WAT      O 3338   5.307   4.904   2.010  0.0702 -0.1145  0.5070
  979WAT     H1 3339   5.384   4.960   2.022  0.2071  1.0589 -4.0465
  979WAT     H2 3340   5.342   4.815   2.009  0.9630  0.2157  0.9845
  980WAT      O 3341   6.808   6.595   4.420  0.2977 -0.3876  0.0322
  980WAT     H1 3342   6.866   6.557   4.486 -0.1476 -0.1888  0.5578
  980WAT     H2 3343   6.721   6.563   4.444 -0.1147  1.0529  0.5882
  981WAT      O 3344   5.412   1.893   2.485 -0.1687 -0.0648  0.1979
  981WAT     H1 3345   5.390   1.975   2.529  1.5287  0.8838 -0.6230
  981WAT     H2 3346   5.441   1.835   2.555  0.7931  0.8285  0.5648
  982WAT      O 3347   7.030   2.472   5.922  0.0355  0.1337 -0.2566
  982WAT     H1 3348   6.973   2.547   5.906 -0.9947 -0.5259  0.2202
  982WAT     H2 3349   7.071   2.491   6.007 -0.9725 -0.2696  0.3427
  983WAT      O 3350   3.116   5.380   2.686  0.1861  0.2730  0.1309
  983WAT     H1 3351   3.103   5.302   2.739  0.1935 -1.1564 -1.8613
  983WAT     H2 3352   3.035   5.431   2.697  0.0241 -0.1988  1.1521
  984WAT      O 3353   5.865   2.768   5.507  0.3175 -0.4047  0.1612
  984WAT     H1 3354   5.786   2.782   5.560  0.2681 -2.8804  0.8395
  984WAT     H2 3355   5.886   2.676   5.519  3.0787  0.0780 -0.3750
  985WAT      O 3356   2.395   3.526   4.896 -0.0031 -0.1448  0.9069
  985WAT     H1 3357   2.420   3.472   4.971  2.9816  0.2073  0.2814
  985WAT     H2 3358   2.450   3.495   4.825 -1.3197  0.8906 -0.6242
  986WAT      O 3359   2.805   6.056   1.138 -0.3297  0.1017  0.0597
  986WAT     H1 3360   2.735   6.011   1.184 -0.2127 -0.1206  0.0210
  986WAT     H2 3361   2.843   5.989   1.080 -0.1898  0.2612 -0.0352
  987WAT      O 3362   2.784   2.232   2.429 -0.2564 -0.0394 -0.4393
  987WAT     H1 3363   2.819   2.152   2.470 -1.8359 -0.6679 -0.2408
  987WAT     H2 3364   2.800   2.301   2.493 -1.4339 -0.7589  0.6849
  988WAT      O 3365   6.874   0.592   2.945  0.0145 -0.4070 -0.0194
  988WAT     H1 3366   6.886   0.497   2.942 -2.5435 -0.7809 -0.8183
  988WAT     H2 3367   6.945   0.627   2.891  0.9989 -1.8179  0.2902
  989WAT      O 3368   3.565   3.616   4.242  0.1423 -0.2249 -0.2036
  989WAT     H1 3369   3.490   3.675   4.234 -1.2265 -2.0177 -1.5489
  989WAT     H2 3370   3.533   3.544   4.295  1.1679 -0.6698 -0.1744
  990WAT      O 3371   1.373   5.059   1.835 -0.0984  0.0725  0.3297
  990WAT     H1 3372   1.301   5.121   1.842 -1.3046 -1.3816  1.6216
  990WAT     H2 3373   1.333   4.974   1.854  1.5801 -1.0521 -0.9113
  991WAT      O 3374   1.688   2.834   2.019  0.2821 -0.4438 -0.4055
  991WAT     H1 3375   1.657   2.764   2.076 -0.3069  1.6749  2.0638
  991WAT     H2 3376   1.629   2.907   2.036  1.0341  0.8089 -2.6692
  992WAT      O 3377   6.372   4.442   2.760 -0.0278 -0.1318 -0.1682
  992WAT     H1 3378   6.338   4.453   2.849  0.7874 -0.4386  0.1870
  992WAT     H2 3379   6.394   4.349   2.755  0.3676 -0.0159 -0.5377
  993WAT      O 3380   5.424   2.656   4.368  0.4146  0.0899  0.2353
  993WAT     H1 3381   5.461   2.641   4.455 -1.7684 -0.3896  1.1680
  993WAT     H2 3382   5.457   2.584   4.315 -2.8397 -3.3755  2.3278
  994WAT      O 3383   6.182   2.573   6.197  0.1929  0.0935 -0.1464
  994WAT     H1 3384   6.214   2.485   6.214  4.1215  1.1645 -1.0990
  994WAT     H2 3385   6.220   2.626   6.267 -0.7022  1.3125 -0.5535
  995WAT      O 3386   6.932   1.707   5.194 -0.3921  0.0035 -0.2016
  995WAT     H1 3387   6.867   1.725   5.262  0.9224  0.8556  0.8752
  995WAT     H2 3388   7.002   1.659   5.238 -0.3477 -1.1031 -1.3883
  996WAT      O 3389   5.127   6.260   0.356 -0.4285 -0.0953 -0.1161
  996WAT     H1 3390   5.214   6.225   0.337 -0.1503  0.4736  0.0828
  996WAT     H2 3391   5.115   6.245   0.450 -0.3266  0.2960 -0.0393
  997WAT      O 3392   3.102   2.495   1.817 -0.0556  0.4307  0.8300
  997WAT     H1 3393   3.023   2.442   1.812  0.6978 -0.9422  2.3879
  997WAT     H2 3394   3.081   2.566   1.878 -0.0613  0.0115  1.3154
  998WAT      O 3395   5.018   1.110   1.014 -0.1378  0.3831 -0.3065
  998WAT     H1 3396   4.994   1.058   1.091  0.7463 -1.4137 -1.1803
  998WAT     H2 3397   4.951   1.177   1.009 -1.2568 -0.5743  0.9825
  999WAT      O 3398   5.199   4.763   5.840 -0.2852  0.1733  0.2177
  999WAT     H1 3399   5.162   4.677   5.862 -2.4606  1.5098  2.1306
  999WAT     H2 3400   5.152   4.790   5.762  0.6807 -0.4786 -0.6227
 1000WAT      O 3401   0.204   7.173   2.427  0.1018  0.6457 -0.3494
 1000WAT     H1 3402   0.238   7.114   2.358 -0.1696  0.1765 -0.0854
 1000WAT     H2 3403   0.283   7.209   2.468  0.2669  1.0404 -0.9971
 1001WAT      O 3404   0.940   3.276   4.537  0.0585 -0.1848 -0.4358
 1001WAT     H1 3405   0.860   3.224   4.540 -0.6512  0.7757 -1.7355
 1001WAT     H2 3406   0.953   3.305   4.627  0.5947 -2.7280  0.3707
 1002WAT      O 3407   5.525   3.855   4.793  0.4127  0.1076  0.6318
 1002WAT     H1 3408   5.507   3.863   4.887 -1.0958  2.8184  0.2100
 1002WAT     H2 3409   5.564   3.939   4.769  0.5734 -0.4582 -1.2091
 1003WAT      O 3410   2.834   0.574   5.132  0.6848 -0.2867  0.3372
 1003WAT     H1 3411   2.760   0.615   5.177 -0.5159 -2.2391  0.2341
 1003WAT     H2 3412   2.909   0.629   5.155 -0.7810  1.8018  0.3720
 1004WAT      O 3413   6.629   2.120   2.320  0.1425  0.3540  0.0461
 1004WAT     H1 3414   6.706   2.130   2.376  0.0130  3.4112 -0.1395
 1004WAT     H2 3415   6.665   2.100   2.234  0.6984  0.8156  0.1629
 1005WAT      O 3416   6.930   2.653   0.624 -0.3900 -0.0853  0.0725
 1005WAT     H1 3417   7.002   2.605   0.665 -0.4623  1.3849  2.0908
 1005WAT     H2 3418   6.851   2.606   0.652 -0.4155  0.7046  1.4305
 1006WAT      O 3419   5.863   4.316   3.175  0.1966  0.3116 -0.2405
 1006WAT     H1 3420   5.841   4.395   3.125 -0.9141  0.4098  0.3693
 1006WAT     H2 3421   5.793   4.308   3.240  0.5001 -0.9605 -0.0322
 1007WAT      O 3422   3.118   1.186   6.003 -0.1761 -0.3107 -0.7839
 1007WAT     H1 3423   3.132   1.093   6.018 -0.2761 -0.0351  1.2542
 1007WAT     H2 3424   3.155   1.229   6.080 -0.8166  1.2947 -1.3262
 1008WAT      O 3425   2.797   1.303   3.403  0.0536  0.0996  0.4221
 1008WAT     H1 3426   2.764   1.390   3.423  0.1514  0.2059  0.1345
 1008WAT     H2 3427   2.874   1.292   3.459  0.5080  0.5140 -0.1030
 1009WAT      O 3428   3.509   6.299   1.972  0.5717 -1.2823 -0.0920
 1009WAT     H1 3429   3.501   6.334   1.883 -1.6167  0.7253  0.7661
 1009WAT     H2 3430   3.443   6.230   1.976 -0.5968 -0.1807  0.4163
 1010WAT      O 3431   7.027   4.067   3.773 -0.4821 -0.4965 -0.6678
 1010WAT     H1 3432   7.016   4.048   3.866 -0.2741  1.2061 -0.2650
 1010WAT     H2 3433   7.066   3.988   3.736  0.5752 -0.7438  0.9255
 1011WAT      O 3434   6.850   4.046   1.344  0.5332  0.0934  0.1110
 1011WAT     H1 3435   6.833   4.140   1.335 -1.1411 -0.2794 -1.3032
 1011WAT     H2 3436   6.935   4.032   1.302  0.2295  0.8261 -0.7755
 1012WAT      O 3437   4.159   2.270   4.218  0.3312 -0.2602 -0.1111
 1012WAT     H1 3438   4.124   2.279   4.307  0.3339 -1.7093  0.0616
 1012WAT     H2 3439   4.082   2.273   4.161 -0.3928 -4.4404  0.3273
 1013WAT      O 3440   2.110   6.128   2.599  0.2240  0.1141 -0.3490
 1013WAT     H1 3441   2.091   6.171   2.682  3.3505  1.1770 -0.0442
 1013WAT     H2 3442   2.141   6.041   2.624 -0.0129 -0.0209 -0.5149
 1014WAT      O 3443   6.254   0.448   4.670  0.5813 -0.1649  0.5316
 1014WAT     H1 3444   6.301   0.423   4.750  0.0344 -2.7171  0.1445
 1014WAT     H2 3445   6.192   0.514   4.699  0.6303 -0.7718  2.1643
 1015WAT      O 3446   2.242   6.216   4.149  0.4402  0.2037  0.5043
 1015WAT     H1 3447   2.230   6.232   4.056  0.3407 -0.2906  0.4286
 1015WAT     H2 3448   2.277   6.298   4.184 -0.2090  0.6354  0.1664
 1016WAT      O 3449   1.882   5.830   1.517  0.0763 -0.2647  0.0249
 1016WAT     H1 3450   1.877   5.764   1.587 -1.6245 -0.9392 -0.6623
 1016WAT     H2 3451   1.867   5.780   1.437  0.2046  0.7692 -0.6549
 1017WAT      O 3452   1.248   5.159   1.180  0.3762 -0.0272 -0.0613
 1017WAT     H1 3453   1.304   5.220   1.134 -0.3072  0.3599 -0.3907
 1017WAT     H2 3454   1.159   5.180   1.151 -0.5227  2.2706  3.5819
 1018WAT      O 3455   7.115   4.990   0.632  0.3953 -0.4061 -0.3118
 1018WAT     H1 3456   7.114   5.071   0.683 -0.1337  0.2903 -1.3925
 1018WAT     H2 3457   7.201   4.952   0.649  0.7745  0.5454 -0.0463
 1019WAT      O 3458   3.468   1.243   0.885 -0.1825  0.2443 -0.0798
 1019WAT     H1 3459   3.455   1.223   0.793 -0.9526 -0.5505  0.1830
 1019WAT     H2 3460   3.552   1.203   0.908 -0.4770 -0.4396 -0.1927
 1020WAT      O 3461   4.452   0.303   1.766  0.4628 -0.1791  0.4279
 1020WAT     H1 3462   4.530   0.268   1.810  0.9305  0.6728  0.2993
 1020WAT     H2 3463   4.386   0.310   1.836  0.0586 -2.1319  0.2813
 1021WAT      O 3464   4.291   1.409   3.247 -0.5939 -0.2806  0.0886
 1021WAT     H1 3465   4.233   1.333   3.243  0.6266 -1.1935 -0.7365
 1021WAT     H2 3466   4.300   1.428   3.340  1.3301 -2.9566  0.5566
 1022WAT      O 3467   4.960   2.209   6.165 -0.7245 -0.0180 -0.1663
 1022WAT     H1 3468   5.054   2.192   6.154 -0.7201 -0.5883  0.6527
 1022WAT     H2 3469   4.940   2.178   6.253 -2.5101 -3.8116 -1.6601
 1023WAT      O 3470   7.643   6.661   4.425 -0.4324  0.4830  0.4813
 1023WAT     H1 3471   7.634   6.752   4.452 -0.2143  0.8405 -0.5911
 1023WAT     H2 3472   7.705   6.664   4.352 -0.5641 -0.5068  0.3156
 1024WAT      O 3473   5.918   6.709   3.039 -0.1720  0.3182 -0.4374
 1024WAT     H1 3474   6.011   6.692   3.052 -0.4624 -0.4759  0.8090
 1024WAT     H2 3475   5.915   6.791   2.990  1.1909 -0.4328 -1.8427
 1025WAT      O 3476   5.944   3.925   4.969  0.1588 -0.2887 -0.1225
 1025WAT     H1 3477   5.880   3.917   4.899 -1.6183 -0.9001  1.4719
 1025WAT     H2 3478   5.930   4.013   5.004 -1.3023 -1.0944  1.4998
 1026WAT      O 3479   3.020   1.657   4.689  0.7043 -0.6885 -0.0985
 1026WAT     H1 3480   2.931   1.631   4.711 -0.8418  1.8001 -2.6439
 1026WAT     H2 3481   3.039   1.730   4.748  0.0957  0.1841 -0.9271
 1027WAT      O 3482   6.954   6.111   0.832 -0.0722  0.5316  0.4398
 1027WAT     H1 3483   6.959   6.153   0.746 -1.4872  2.0918  1.0734
 1027WAT     H2 3484   6.885   6.046   0.823  1.5396 -1.1685 -0.2948
 1028WAT      O 3485   5.530   2.891   1.396  0.4470  0.6086 -0.4922
 1028WAT     H1 3486   5.611   2.935   1.371  1.8603 -0.8648  1.1463
 1028WAT     H2 3487   5.548   2.798   1.378 -0.2777  0.0921  1.2791
 1029WAT      O 3488   3.685   3.297   2.977  0.2296 -0.5056  0.1166
 1029WAT     H1 3489   3.779   3.289   2.988 -0.0156 -1.0926  2.5125
 1029WAT     H2 3490   3.650   3.286   3.066 -2.1725 -1.6962 -0.8718
 1030WAT      O 3491   1.804   4.377   3.168 -0.3933 -0.0352  0.0196
 1030WAT     H1 3492   1.736   4.310   3.179 -0.7081  0.0490 -1.2875
 1030WAT     H2 3493   1.855   4.373   3.249 -0.6780 -1.5516  0.1459
 1031WAT      O 3494   1.023   3.480   1.096  0.3376 -0.1983 -0.4585
 1031WAT     H1 3495   0.946   3.427   1.115  0.4917  0.0036  0.8133
 1031WAT     H2 3496   1.081   3.421   1.047 -0.4116 -0.4961 -1.0062
 1032WAT      O 3497   2.910   3.933   4.466 -0.1967 -0.1525 -0.4830
 1032WAT     H1 3498   2.990   3.897   4.429  1.0853  0.9806  1.0772
 1032WAT     H2 3499   2.912   3.906   4.558 -1.1023  0.7191 -0.1905
 1033WAT      O 3500   4.108   5.765   4.814 -0.3773 -0.8399 -0.3519
 1033WAT     H1 3501   4.140   5.675   4.819 -1.7602 -1.4125 -1.0921
 1033WAT     H2 3502   4.083   5.786   4.904  2.2961 -0.2352  0.3180
 1034WAT      O 3503   2.352   4.992   0.848 -0.3726 -0.3247 -0.0045
 1034WAT     H1 3504   2.371   4.975   0.756 -0.2163 -2.8037  0.4259
 1034WAT     H2 3505   2.437   4.988   0.892 -0.6252 -0.6288  0.4591
 1035WAT      O 3506   5.776   5.736   3.490 -0.6224 -0.0986  0.7931
 1035WAT     H1 3507   5.798   5.821   3.526  0.3192 -0.2630  0.6169
 1035WAT     H2 3508   5.680   5.732   3.494 -0.7050  1.1792  0.3060
 1036WAT      O 3509   7.462   0.579   2.394 -0.0286 -0.2329 -0.5808
 1036WAT     H1 3510   7.515   0.641   2.344 -0.0787 -1.4391 -2.1911
 1036WAT     H2 3511   7.375   0.617   2.396 -0.6572 -1.2606 -3.6171
 1037WAT      O 3512   1.612   0.518   2.472 -0.1288 -0.0542  0.0506
 1037WAT     H1 3513   1.677   0.523   2.542 -1.5843  0.4100  1.4264
 1037WAT     H2 3514   1.661   0.488   2.395  2.1001  2.1209  0.5065
 1038WAT      O 3515   4.580   3.302   4.801 -0.5655 -0.1174 -0.2890
 1038WAT     H1 3516   4.608   3.211   4.786 -1.1601 -0.3083 -0.2640
 1038WAT     H2 3517   4.524   3.297   4.879  1.1646  0.6108  1.0611
 1039WAT      O 3518   3.593   3.647   6.071  0.1313  0.0656  1.1054
 1039WAT     H1 3519   3.541   3.713   6.117  0.9256 -0.3516  2.6866
 1039WAT     H2 3520   3.582   3.567   6.124 -2.8340 -1.8967 -2.0627
 1040WAT      O 3521   7.509   6.928   4.876 -0.1941  0.2345  0.2445
 1040WAT     H1 3522   7.455   6.867   4.925 -1.5574  1.0637 -0.1799
 1040WAT     H2 3523   7.522   6.887   4.790  0.7263 -0.4178  0.6765
 1041WAT      O 3524   6.587   3.655   1.422  0.3295  0.3369 -0.5318
 1041WAT     H1 3525   6.647   3.728   1.410 -0.1514  0.8021 -0.1636
 1041WAT     H2 3526   6.500   3.694   1.414  0.0626 -0.4580 -1.8921
 1042WAT      O 3527   5.662   3.298   0.647  0.1655  0.1197 -0.3069
 1042WAT     H1 3528   5.568   3.292   0.627  0.0923 -1.8494  0.4629
 1042WAT     H2 3529   5.668   3.276   0.740  1.4313 -0.1540 -0.4416
 1043WAT      O 3530   1.142   7.000   4.351  0.3081  0.6951 -0.2371
 1043WAT     H1 3531   1.174   7.041   4.432 -0.9312  1.0446  0.0917
 1043WAT     H2 3532   1.156   6.907   4.364 -0.4138  0.6955  0.6379
 1044WAT      O 3533   0.924   3.533   1.407  0.2558 -0.2935  0.0520
 1044WAT     H1 3534   0.849   3.584   1.437  1.4719  1.2559  0.6301
 1044WAT     H2 3535   0.957   3.581   1.330 -0.3139 -1.8929 -1.2612
 1045WAT      O 3536   3.582   1.059   1.234  0.2377 -0.1624 -0.2579
 1045WAT     H1 3537   3.575   0.982   1.290  2.2515 -0.2164 -0.0068
 1045WAT     H2 3538   3.492   1.090   1.224 -0.3556 -1.1794  1.5412
 1046WAT      O 3539   5.124   5.087   4.137 -0.5881  0.8296 -0.0963
 1046WAT     H1 3540   5.081   5.173   4.140  1.3444  1.8334  0.1188
 1046WAT     H2 3541   5.208   5.101   4.180  0.0049 -1.0561 -0.5674
 1047WAT      O 3542   1.137   2.160   1.516 -0.1924  0.5863 -0.6806
 1047WAT     H1 3543   1.136   2.097   1.588 -1.0095  0.8418 -0.4575
 1047WAT     H2 3544   1.175   2.239   1.554 -0.7533  0.7663 -0.4777
 1048WAT      O 3545   3.156   0.776   2.151  0.0302  0.2392  0.1554
 1048WAT     H1 3546   3.189   0.753   2.064 -0.2506  0.2890  0.0352
 1048WAT     H2 3547   3.220   0.837   2.186  0.0739  0.3205 -0.0689
 1049WAT      O 3548   3.213   6.792   1.979 -0.4712  0.2400  0.1849
 1049WAT     H1 3549   3.147   6.858   2.000 -1.1524 -0.4506  0.2753
 1049WAT     H2 3550   3.235   6.753   2.063 -0.1629  0.2697  0.1170
 1050WAT      O 3551   0.781   1.267   2.847  0.0014  0.3557 -0.1865
 1050WAT     H1 3552   0.773   1.362   2.836  0.5961  0.5120  0.6307
 1050WAT     H2 3553   0.712   1.245   2.910  1.1369  0.5805  1.1968
 1051WAT      O 3554   6.803   5.672   0.077 -0.3060  0.5782 -0.5566
 1051WAT     H1 3555   6.821   5.625   0.159  0.0201  0.2576 -0.8103
 1051WAT     H2 3556   6.732   5.623   0.036 -0.1983  0.5044 -0.6563
 1052WAT      O 3557   1.477   5.300   2.988 -0.5093 -0.4583  0.3340
 1052WAT     H1 3558   1.431   5.354   3.053 -0.0975  2.0229 -1.2812
 1052WAT     H2 3559   1.409   5.267   2.931 -0.5786  0.9859 -0.4714
 1053WAT      O 3560   1.129   5.322   2.716  0.4552  0.0072 -0.0684
 1053WAT     H1 3561   1.117   5.354   2.805  1.4410  2.1963 -0.6726
 1053WAT     H2 3562   1.223   5.309   2.707  0.3922  0.0100 -0.8557
 1054WAT      O 3563   6.489   0.030   4.406 -0.2860 -0.5619 -0.0701
 1054WAT     H1 3564   6.549   0.074   4.466 -0.5409 -0.6884  0.2800
 1054WAT     H2 3565   6.544   0.001   4.333  0.2773 -1.6428  0.7549
 1055WAT      O 3566   5.735   2.658   4.345 -0.5431  0.1382 -0.0222
 1055WAT     H1 3567   5.829   2.649   4.332 -0.6144 -0.5246 -0.0978
 1055WAT     H2 3568   5.725   2.737   4.398  0.0282  0.4273 -0.3422
 1056WAT      O 3569   1.378   7.058   4.664 -0.0835 -0.0995 -0.1404
 1056WAT     H1 3570   1.285   7.060   4.686  0.4691 -1.2189  2.6907
 1056WAT     H2 3571   1.411   7.143   4.693 -0.0679 -0.0110 -0.4147
 1057WAT      O 3572   6.308   4.820   3.602 -0.0228  0.2395 -0.1806
 1057WAT     H1 3573   6.329   4.731   3.574  0.6833  0.3652 -0.0807
 1057WAT     H2 3574   6.232   4.811   3.658  0.1371 -0.3226 -0.0504
 1058WAT      O 3575   5.353   3.057   3.604 -0.2032  0.5899  0.6434
 1058WAT     H1 3576   5.353   3.152   3.617 -0.9143  0.4648  1.6645
 1058WAT     H2 3577   5.313   3.045   3.518 -0.6040  1.1979  0.7364
 1059WAT      O 3578   3.848   5.253   3.448 -0.2888 -0.4860 -0.7088
 1059WAT     H1 3579   3.767   5.208   3.474 -0.1372 -1.5925 -2.0261
 1059WAT     H2 3580   3.835   5.344   3.475 -1.7765 -0.7403 -0.4733
 1060WAT      O 3581   0.351   2.413   4.020 -0.3938 -0.0575 -0.0703
 1060WAT     H1 3582   0.272   2.360   4.009  0.6651 -1.6072 -0.4712
 1060WAT     H2 3583   0.418   2.367   3.970  0.1814  2.6171 -1.9802
 1061WAT      O 3584   6.812   3.895   2.253 -0.3422  0.0061  0.2847
 1061WAT     H1 3585   6.835   3.876   2.162  0.6293 -0.4199  0.5986
 1061WAT     H2 3586   6.756   3.823   2.280 -1.2160  0.5045 -0.1834
 1062WAT      O 3587   0.311   5.900   3.939 -0.2828  0.7578 -0.5754
 1062WAT     H1 3588   0.400   5.929   3.921  1.0157 -0.5898  2.8571
 1062WAT     H2 3589   0.260   5.981   3.944  0.9912  1.6442 -1.2477
 1063WAT      O 3590   2.019   4.508   0.619 -0.3016 -0.0037  0.8541
 1063WAT     H1 3591   2.113   4.526   0.611 -0.0026 -1.2566  1.3320
 1063WAT     H2 3592   1.988   4.571   0.684  0.0589  0.8588  0.2128
 1064WAT      O 3593   1.708   4.048   4.097 -0.1036  0.0349 -0.2547
 1064WAT     H1 3594   1.780   4.107   4.073  0.0829  0.8372  2.0514
 1064WAT     H2 3595   1.731   4.017   4.185 -2.7183  0.5507  0.6801
 1065WAT      O 3596   2.693   6.675   2.710 -0.6135  0.8530 -0.0022
 1065WAT     H1 3597   2.786   6.651   2.701 -1.1755 -0.7548 -2.1254
 1065WAT     H2 3598   2.675   6.730   2.634 -1.8086 -0.3003 -0.5897
 1066WAT      O 3599   6.754   6.513   5.564  0.0640  0.2877  0.8776
 1066WAT     H1 3600   6.676   6.569   5.565 -0.2034 -0.0507  0.1853
 1066WAT     H2 3601   6.721   6.426   5.590 -0.1636 -0.2695 -1.0908
 1067WAT      O 3602   5.951   4.284   0.978 -0.6039 -0.2860  0.0441
 1067WAT     H1 3603   5.923   4.299   1.068  0.2101  0.4414  0.1969
 1067WAT     H2 3604   6.033   4.236   0.986 -0.7576 -0.6180 -0.3304
 1068WAT      O 3605   5.353   0.575   5.127  0.2071 -0.0966  0.2151
 1068WAT     H1 3606   5.382   0.607   5.213  0.5131 -1.0236  0.4753
 1068WAT     H2 3607   5.273   0.623   5.108 -0.6921 -0.9271  1.7183
 1069WAT      O 3608   0.989   3.709   5.740  0.5122  0.8424 -0.2416
 1069WAT     H1 3609   0.949   3.779   5.791  0.5586 -0.9068  2.4053
 1069WAT     H2 3610   0.915   3.665   5.698  0.3750  1.6938 -0.9172
 1070WAT      O 3611   6.522   2.582   0.146 -0.6559  0.3509 -0.0610
 1070WAT     H1 3612   6.520   2.593   0.241  1.9416 -1.3754  0.2916
 1070WAT     H2 3613   6.572   2.657   0.114 -1.8182  1.1175 -0.1722
 1071WAT      O 3614   5.356   3.673   3.328  0.0585  0.0094 -0.6803
 1071WAT     H1 3615   5.310   3.664   3.412 -1.6403  0.9466 -1.4556
 1071WAT     H2 3616   5.424   3.738   3.345 -0.2457  0.1721 -0.0364
 1072WAT      O 3617   4.802   5.973   6.197  0.1658  0.1261 -0.0719
 1072WAT     H1 3618   4.843   5.933   6.120 -2.2212  0.8165 -1.8260
 1072WAT     H2 3619   4.856   5.944   6.271  1.5502 -1.9951 -1.7947
 1073WAT      O 3620   3.913   4.587   5.020 -0.2728 -0.1400  0.0129
 1073WAT     H1 3621   3.824   4.589   4.984 -0.3782 -1.2128  0.1878
 1073WAT     H2 3622   3.901   4.588   5.114 -0.0588  0.5894  0.0406
 1074WAT      O 3623   3.347   6.106   1.687  0.0063  0.3713 -0.5559
 1074WAT     H1 3624   3.419   6.062   1.732  0.0623  0.1782 -0.8323
 1074WAT     H2 3625   3.269   6.056   1.711 -0.0239  0.5283 -0.3269
 1075WAT      O 3626   5.288   0.146   3.277  0.5077 -0.0330 -0.2861
 1075WAT     H1 3627   5.261   0.059   3.307  0.1226  0.1072 -0.2180
 1075WAT     H2 3628   5.300   0.137   3.183 -1.1473  0.2269 -0.5561
 1076WAT      O 3629   3.280   2.551   5.447  0.2425 -0.6546 -0.1049
 1076WAT     H1 3630   3.321   2.549   5.533 -0.8205 -0.1374  0.4434
 1076WAT     H2 3631   3.245   2.640   5.439 -0.1368 -0.8558 -0.8478
 1077WAT      O 3632   1.423   0.824   2.449 -0.3669  0.5404 -0.3606
 1077WAT     H1 3633   1.423   0.770   2.529 -2.0594 -0.0873 -0.7461
 1077WAT     H2 3634   1.429   0.914   2.481  2.2155  0.2143  0.3067
 1078WAT      O 3635   4.651   3.145   4.426  0.1966  0.3891  0.0179
 1078WAT     H1 3636   4.652   3.069   4.485 -2.1922  0.1545 -0.1465
 1078WAT     H2 3637   4.707   3.210   4.469  0.9329 -0.8454  0.9993
 1079WAT      O 3638   7.562   2.006   3.939 -0.1888  0.2254 -0.3148
 1079WAT     H1 3639   7.616   2.074   3.981  1.1693  0.5646 -2.4649
 1079WAT     H2 3640   7.570   2.024   3.845 -2.0626 -1.2709 -0.8161
 1080WAT      O 3641   4.893   6.182   2.021  0.2516 -0.8767 -0.1343
 1080WAT     H1 3642   4.806   6.198   2.056  0.1866 -1.3343 -0.0840
 1080WAT     H2 3643   4.943   6.145   2.094  1.1615  1.4797  0.5082
 1081WAT      O 3644   0.694   5.184   4.982 -0.4513 -0.1983  0.6028
 1081WAT     H1 3645   0.749   5.126   4.930 -1.0110  0.4530 -0.7446
 1081WAT     H2 3646   0.755   5.250   5.016 -0.3714  0.6317 -1.0411
 1082WAT      O 3647   0.358   6.250   5.489  0.3512 -0.7082  0.0883
 1082WAT     H1 3648   0.326   6.333   5.457  0.5430 -0.5227  0.3729
 1082WAT     H2 3649   0.306   6.231   5.567 -0.2146 -1.2301 -0.4030
 1083WAT      O 3650   4.016   4.304   3.424 -0.3402  0.5363 -0.0833
 1083WAT     H1 3651   4.014   4.211   3.446 -1.0873  0.4899 -0.3063
 1083WAT     H2 3652   4.092   4.339   3.470  0.3278 -0.3156 -0.5106
 1084WAT      O 3653   2.536   6.369   2.576  0.0475 -0.4086  0.0624
 1084WAT     H1 3654   2.622   6.389   2.540  0.7678 -0.7806  1.5139
 1084WAT     H2 3655   2.551   6.297   2.637 -1.1974 -0.1134  0.7596
 1085WAT      O 3656   0.366   1.091   1.528  0.4065  0.1941 -0.0688
 1085WAT     H1 3657   0.410   1.153   1.587  0.3727  0.1616 -0.0098
 1085WAT     H2 3658   0.364   1.136   1.444 -0.3882  0.6318  0.1725
 1086WAT      O 3659   4.526   5.221   5.692 -0.4239  0.3359  0.0355
 1086WAT     H1 3660   4.551   5.191   5.605  2.4722  0.4286  0.7407
 1086WAT     H2 3661   4.514   5.140   5.742  0.8604  0.2614  0.2603
 1087WAT      O 3662   3.543   2.886   3.372 -0.3455 -0.1966 -0.3508
 1087WAT     H1 3663   3.483   2.913   3.442 -1.1672 -1.1399 -0.6511
 1087WAT     H2 3664   3.620   2.853   3.417  0.3327  1.8027  0.0281
 1088WAT      O 3665   4.900   4.857   5.027  0.3195 -0.8601 -0.2244
 1088WAT     H1 3666   4.833   4.798   4.993  1.1307 -2.4976  0.8698
 1088WAT     H2 3667   4.983   4.816   5.001  0.9496 -1.5751  2.5449
 1089WAT      O 3668   3.916   0.001   4.764  0.1680 -0.3314  0.6528
 1089WAT     H1 3669   3.852   0.049   4.816 -0.3194  1.7010 -1.6072
 1089WAT     H2 3670   3.872  -0.014   4.680  1.2202 -2.6444  0.4550
 1090WAT      O 3671   1.877   0.809   4.904  0.1275  0.1666  0.3108
 1090WAT     H1 3672   1.972   0.809   4.900  0.2090 -1.8209  1.1667
 1090WAT     H2 3673   1.851   0.728   4.861 -1.1297  0.3048  0.7612
 1091WAT      O 3674   2.615   6.741   5.378 -0.3124 -0.2102 -0.1557
 1091WAT     H1 3675   2.703   6.735   5.415 -0.1769 -3.5972 -0.6448
 1091WAT     H2 3676   2.574   6.657   5.401 -3.2069  0.9751 -0.5297
 1092WAT      O 3677   4.743   2.272   5.197 -0.0316  0.9088 -0.1582
 1092WAT     H1 3678   4.736   2.223   5.115 -1.2953  0.8021 -0.0129
 1092WAT     H2 3679   4.715   2.360   5.174  0.6967  1.1675 -0.0722
 1093WAT      O 3680   3.296   6.900   2.754  0.1375 -0.1321 -0.3437
 1093WAT     H1 3681   3.291   6.805   2.742 -0.3285 -0.0361 -1.0063
 1093WAT     H2 3682   3.204   6.929   2.752  0.2412  0.2702  0.4395
 1094WAT      O 3683   1.645   6.838   5.145  0.7433  0.2570  0.1848
 1094WAT     H1 3684   1.722   6.788   5.172  0.7524 -0.0050 -0.3163
 1094WAT     H2 3685   1.644   6.913   5.205  0.5717 -0.4727  1.1257
 1095WAT      O 3686   7.580   0.669   1.872 -0.4461  0.3141  0.3199
 1095WAT     H1 3687   7.583   0.640   1.781 -0.6222  1.2472  0.0056
 1095WAT     H2 3688   7.662   0.639   1.910 -0.2375  0.1746 -0.2340
 1096WAT      O 3689   5.587   2.381   0.578  0.3754 -0.3740 -0.0530
 1096WAT     H1 3690   5.538   2.378   0.496  0.9700 -1.1228 -0.3898
 1096WAT     H2 3691   5.530   2.336   0.641  0.5657 -1.1458 -0.4170
 1097WAT      O 3692   5.675   6.834   4.045 -0.1852  0.1828 -0.0921
 1097WAT     H1 3693   5.664   6.874   4.132  1.5426 -2.5666  1.5310
 1097WAT     H2 3694   5.659   6.741   4.058 -0.0497 -0.3141 -2.8090
 1098WAT      O 3695   6.468   4.040   4.241 -0.1346  0.9310 -0.0801
 1098WAT     H1 3696   6.503   4.051   4.329 -0.4373  0.8769  0.0483
 1098WAT     H2 3697   6.501   4.116   4.192 -0.0952  1.0430  0.1208
 1099WAT      O 3698   1.733   0.151   4.445  0.0422 -0.5949  0.3362
 1099WAT     H1 3699   1.661   0.088   4.447  0.5303 -1.2884 -1.7111
 1099WAT     H2 3700   1.742   0.175   4.353 -0.1193  2.5413  1.0102
 1100WAT      O 3701   5.409   5.776   1.688  0.0928 -0.4751 -0.2176
 1100WAT     H1 3702   5.449   5.844   1.634 -2.2429  0.6086 -0.7243
 1100WAT     H2 3703   5.377   5.712   1.625 -1.3299  0.0536 -0.0697
 1101WAT      O 3704   3.535   0.606   5.879  0.1683 -0.7246  0.4494
 1101WAT     H1 3705   3.577   0.591   5.963  3.1779 -0.9977 -0.9727
 1101WAT     H2 3706   3.571   0.688   5.847 -0.2406 -1.0440 -0.9495
 1102WAT      O 3707   7.503   5.776   4.002  0.8061 -0.1262 -0.1528
 1102WAT     H1 3708   7.448   5.801   4.077  0.6177 -0.7935 -0.0648
 1102WAT     H2 3709   7.441   5.745   3.936  1.0479 -0.5616 -0.1809
 1103WAT      O 3710   1.257   5.913   1.539 -0.6732 -0.0808 -0.3271
 1103WAT     H1 3711   1.169   5.903   1.576 -0.1216  0.6911  1.2497
 1103WAT     H2 3712   1.316   5.909   1.614  0.4918  1.4521 -1.1021
 1104WAT      O 3713   4.277   0.381   0.436 -0.8902  0.4265 -0.0256
 1104WAT     H1 3714   4.220   0.335   0.498 -1.0078  0.2247 -0.2814
 1104WAT     H2 3715   4.239   0.363   0.350 -1.7024  2.1039 -0.0432
 1105WAT      O 3716   0.818   4.851   2.034 -0.1130 -0.1386 -0.8075
 1105WAT     H1 3717   0.795   4.872   2.124  0.4485  2.7676 -1.2656
 1105WAT     H2 3718   0.862   4.766   2.040  1.9331  0.9655  2.0210
 1106WAT      O 3719   7.536   5.417   4.986 -0.5672 -0.3434 -0.2638
 1106WAT     H1 3720   7.541   5.479   4.913 -1.0149  0.3364  0.2666
 1106WAT     H2 3721   7.577   5.338   4.953  3.0293  1.1898  0.0607
 1107WAT      O 3722   4.415   1.937   2.800  0.0737  0.2639 -0.1179
 1107WAT     H1 3723   4.503   1.973   2.791  0.1842  0.3845  1.2891
 1107WAT     H2 3724   4.363   2.010   2.835 -0.4544  0.0166 -0.3704
 1108WAT      O 3725   6.897   3.491   0.850 -0.7821 -0.4786  0.2038
 1108WAT     H1 3726   6.925   3.442   0.928  0.3416 -1.6366 -0.8751
 1108WAT     H2 3727   6.846   3.564   0.885 -1.2647 -1.5878  1.9654
 1109WAT      O 3728   1.916   3.607   1.894  0.2923 -0.0918 -0.6196
 1109WAT     H1 3729   1.893   3.634   1.982  0.6740 -0.5003 -0.3913
 1109WAT     H2 3730   1.902   3.685   1.840  0.4493  0.2776 -0.1287
 1110WAT      O 3731   2.436   5.434   0.880 -0.4113 -0.1206  0.0732
 1110WAT     H1 3732   2.380   5.441   0.958  0.4925  2.0878  0.6190
 1110WAT     H2 3733   2.523   5.459   0.911  0.0946  0.2037 -1.5283
 1111WAT      O 3734   5.973   6.066   3.083 -0.0591  0.1029  0.0394
 1111WAT     H1 3735   5.927   6.134   3.132  0.5727 -0.0919  0.9208
 1111WAT     H2 3736   5.907   6.033   3.021 -1.2321 -0.4090  1.4866
 1112WAT      O 3737   3.584   4.982   4.674  0.3430  0.0334  0.2385
 1112WAT     H1 3738   3.622   4.900   4.705  0.6211 -0.0129 -0.2180
 1112WAT     H2 3739   3.658   5.043   4.671  0.2272  0.1687  0.1259
 1113WAT      O 3740   2.591   1.009   5.171 -0.2408 -0.1111  0.8710
 1113WAT     H1 3741   2.646   0.930   5.170  0.9327  0.6377  2.1687
 1113WAT     H2 3742   2.612   1.052   5.255  0.7756  2.6630 -0.6646
 1114WAT      O 3743   4.928   6.062   0.359  0.2674  0.0377 -0.5680
 1114WAT     H1 3744   4.996   5.999   0.334  0.5134  0.4541 -0.9734
 1114WAT     H2 3745   4.971   6.147   0.353 -0.5494  0.3869 -1.7362
 1115WAT      O 3746   5.280   1.997   4.913 -0.6489  0.2706  0.1280
 1115WAT     H1 3747   5.272   1.946   4.993  1.3403 -1.0083 -0.4185
 1115WAT     H2 3748   5.345   2.064   4.933  0.9036 -0.9095 -0.7632
 1116WAT      O 3749   0.726   6.749   4.762  0.1626  0.1175  0.4495
 1116WAT     H1 3750   0.704   6.836   4.794 -0.7792  0.1307 -0.2085
 1116WAT     H2 3751   0.717   6.692   4.838  1.2264  0.6466  0.9958
 1117WAT      O 3752   3.768   2.501   1.906 -0.1466  0.2040 -0.2589
 1117WAT     H1 3753   3.825   2.559   1.855  0.6446  0.3309  0.7450
 1117WAT     H2 3754   3.703   2.558   1.946  0.3293  0.3440  0.3250
 1118WAT      O 3755   6.518   2.144   2.846 -0.2702  0.8377  0.4043
 1118WAT     H1 3756   6.481   2.216   2.796 -1.2224  1.7832  2.3817
 1118WAT     H2 3757   6.532   2.180   2.933  0.8350 -0.8995  0.9895
 1119WAT      O 3758   5.088   6.608   0.868  0.3172 -0.7196 -0.4413
 1119WAT     H1 3759   5.039   6.683   0.833  1.8721  0.2691 -0.5686
 1119WAT     H2 3760   5.097   6.627   0.961  0.9894 -0.5658 -0.5312
 1120WAT      O 3761   7.459   5.924   3.530  0.3783 -0.3719  0.0539
 1120WAT     H1 3762   7.444   5.889   3.618  0.7458  2.3133  1.2858
 1120WAT     H2 3763   7.527   5.990   3.541 -1.6379  2.1909 -1.6161
 1121WAT      O 3764   7.154   3.378   1.416 -0.4116  0.1480 -0.2027
 1121WAT     H1 3765   7.081   3.429   1.453 -0.4554  0.8548 -1.2185
 1121WAT     H2 3766   7.231   3.433   1.431 -0.0747 -0.5771  0.8239
 1122WAT      O 3767   2.628   1.118   2.459  0.0810  0.2094  0.0375
 1122WAT     H1 3768   2.702   1.061   2.480 -1.7977 -2.9412 -1.1775
 1122WAT     H2 3769   2.639   1.140   2.367 -0.7373 -0.7462 -0.3037
 1123WAT      O 3770   4.725   7.153   5.903 -0.3259  0.1533  0.4643
 1123WAT     H1 3771   4.649   7.156   5.962 -0.0425  0.5322  0.8251
 1123WAT     H2 3772   4.688   7.146   5.816 -0.7729  0.1252  0.6534
 1124WAT      O 3773   3.217   5.619   5.597 -0.4165 -0.2732 -0.0794
 1124WAT     H1 3774   3.216   5.714   5.597 -2.2906 -0.2301  1.3995
 1124WAT     H2 3775   3.180   5.594   5.681 -2.4435 -2.2788 -1.4331
 1125WAT      O 3776   6.717   1.999   6.008 -0.2273  0.0366 -0.6690
 1125WAT     H1 3777   6.784   2.064   5.989  0.3344  0.4575  2.2205
 1125WAT     H2 3778   6.741   1.964   6.094 -1.7833 -2.3675 -1.1144
 1126WAT      O 3779   5.897   1.642   0.228 -0.5281  0.1547 -0.0522
 1126WAT     H1 3780   5.985   1.612   0.206 -0.5377 -1.5137  1.8381
 1126WAT     H2 3781   5.841   1.564   0.216 -0.6157 -0.8577  4.7044
 1127WAT      O 3782   3.839   3.948   3.349 -0.0534  0.0654  0.3506
 1127WAT     H1 3783   3.799   4.021   3.301 -1.0761  1.3746  3.0379
 1127WAT     H2 3784   3.775   3.925   3.416  1.9971 -0.5108  2.2209
 1128WAT      O 3785   3.602   6.384   3.242  0.1522  0.3901 -0.2472
 1128WAT     H1 3786   3.658   6.435   3.185  1.6487 -1.5487 -0.6183
 1128WAT     H2 3787   3.628   6.410   3.331  1.6553 -0.4349 -0.4124
 1129WAT      O 3788   3.263   4.813   5.523  0.1260  0.0263 -0.3713
 1129WAT     H1 3789   3.176   4.842   5.549  0.2480 -1.1829  1.6750
 1129WAT     H2 3790   3.252   4.721   5.500  0.5247  0.4030 -2.2233
 1130WAT      O 3791   7.434   5.660   5.324  0.3284  0.1415  0.0439
 1130WAT     H1 3792   7.461   5.570   5.338  0.4398  0.2023  0.2239
 1130WAT     H2 3793   7.347   5.666   5.363 -0.1056 -0.1479 -0.8499
 1131WAT      O 3794   3.052   3.505   3.777 -0.0219 -0.2607 -0.4932
 1131WAT     H1 3795   3.124   3.565   3.796 -0.0906 -0.5498  0.7535
 1131WAT     H2 3796   3.083   3.419   3.806 -0.5971 -0.5078 -0.5906
 1132WAT      O 3797   3.977   3.853   3.100 -0.8864 -0.4769  0.7667
 1132WAT     H1 3798   3.990   3.945   3.080 -0.8697 -0.2955  1.5710
 1132WAT     H2 3799   3.915   3.852   3.172 -0.7632 -1.0883  0.8742
 1133WAT      O 3800   2.680   2.659   2.033  0.1253 -0.1216  0.1779
 1133WAT     H1 3801   2.622   2.590   2.066  0.1037  0.4083  1.2830
 1133WAT     H2 3802   2.635   2.692   1.955 -0.0586 -1.0863 -0.1392
 1134WAT      O 3803   5.221   2.183   6.216  0.6982 -0.2999  0.5145
 1134WAT     H1 3804   5.229   2.273   6.185  2.3569 -0.6190 -0.0846
 1134WAT     H2 3805   5.244   2.187   6.309 -0.7982  0.0984  0.9105
 1135WAT      O 3806   0.668   4.304   2.895  0.4949  0.0107 -0.1867
 1135WAT     H1 3807   0.701   4.303   2.805  1.3679  0.7610  0.1127
 1135WAT     H2 3808   0.691   4.219   2.931  2.1122  0.5059  0.0068
 1136WAT      O 3809   6.782   1.319   1.190 -0.2185  0.4610 -0.4428
 1136WAT     H1 3810   6.690   1.294   1.180 -0.1933  0.1890 -0.0063
 1136WAT     H2 3811   6.812   1.272   1.268  0.0110  1.3397  0.0221
 1137WAT      O 3812   2.908   2.016   2.561 -0.2419  0.1437  0.6018
 1137WAT     H1 3813   2.873   2.016   2.650  0.7883  0.3442  1.0152
 1137WAT     H2 3814   2.869   1.938   2.520  0.4244 -0.7935  1.6911
 1138WAT      O 3815   0.569   5.581   3.015  0.7934 -0.1226  0.3054
 1138WAT     H1 3816   0.635   5.540   3.072 -0.1204 -0.9036  0.8254
 1138WAT     H2 3817   0.536   5.510   2.961 -0.1947  0.0927  0.6106
 1139WAT      O 3818   5.932   4.494   3.468 -0.6791 -0.1211  0.3502
 1139WAT     H1 3819   5.976   4.562   3.417 -0.3672 -0.0338  0.7335
 1139WAT     H2 3820   5.970   4.501   3.555  0.2017 -1.5451  0.1205
 1140WAT      O 3821   6.387   3.732   4.438 -0.3234 -0.9698  0.1675
 1140WAT     H1 3822   6.331   3.794   4.392  0.4267 -0.5132 -0.1444
 1140WAT     H2 3823   6.445   3.697   4.371 -0.0241 -1.2024  0.5400
 1141WAT      O 3824   3.744   5.692   2.816 -0.1164 -0.0745 -0.1648
 1141WAT     H1 3825   3.824   5.744   2.825 -0.8928  1.0411  0.5208
 1141WAT     H2 3826   3.685   5.728   2.882 -0.7279 -1.7651  0.2587
 1142WAT      O 3827   4.298   2.835   0.184  0.1093 -0.2526  0.2203
 1142WAT     H1 3828   4.250   2.837   0.101  3.3073  1.0131 -1.7992
 1142WAT     H2 3829   4.315   2.742   0.199 -0.0225 -0.4759 -0.8871
 1143WAT      O 3830   1.125   2.094   4.068  0.5818  0.3661  0.2120
 1143WAT     H1 3831   1.202   2.104   4.124 -0.0799  2.5898  0.8356
 1143WAT     H2 3832   1.154   2.124   3.982  0.3148  1.8366  0.5942
 1144WAT      O 3833   2.606   0.360   2.593  0.5261  0.8002 -0.2219
 1144WAT     H1 3834   2.556   0.383   2.515  0.0485  0.8882  0.1044
 1144WAT     H2 3835   2.599   0.438   2.649 -1.3283 -0.1757  1.0131
 1145WAT      O 3836   0.208   4.499   1.495 -0.2491 -0.1326 -0.3263
 1145WAT     H1 3837   0.296   4.504   1.459 -0.5660  0.2282 -1.0600
 1145WAT     H2 3838   0.204   4.412   1.536 -0.8656 -1.9762 -3.8621
 1146WAT      O 3839   7.000   5.845   4.543 -0.2493 -0.2496  0.2914
 1146WAT     H1 3840   6.922   5.792   4.559  0.2499 -1.0804  0.0744
 1146WAT     H2 3841   7.037   5.860   4.629 -1.3510  1.2896  0.5313
 1147WAT      O 3842   1.797   3.986   1.077 -0.1814 -0.3229  0.3567
 1147WAT     H1 3843   1.715   3.936   1.072  0.0080 -0.6367  0.3345
 1147WAT     H2 3844   1.828   3.972   1.167 -0.3993  0.1965  0.5159
 1148WAT      O 3845   2.077   0.195   2.253  0.5722 -0.1277  0.2457
 1148WAT     H1 3846   2.012   0.129   2.275 -0.0063  0.2378 -0.3162
 1148WAT     H2 3847   2.084   0.250   2.330 -1.8105  1.4604 -0.5685
 1149WAT      O 3848   6.154   2.585   3.377  0.0431  0.2991  0.3903
 1149WAT     H1 3849   6.241   2.593   3.414 -0.6440  2.6908  1.6996
 1149WAT     H2 3850   6.100   2.548   3.447 -0.2619  0.0718  0.0427
 1150WAT      O 3851   3.005   5.628   2.194  0.1346 -0.2695  0.9137
 1150WAT     H1 3852   3.098   5.620   2.214  0.2097 -1.1759  0.2862
 1150WAT     H2 3853   2.982   5.544   2.153 -0.1608  1.0832 -1.9853
 1151WAT      O 3854   6.113   1.579   3.628  0.1179 -0.3653 -0.2786
 1151WAT     H1 3855   6.130   1.623   3.544  0.6892  0.1623  0.1043
 1151WAT     H2 3856   6.030   1.616   3.658  1.4891  1.9658  0.9627
 1152WAT      O 3857   4.615   2.542   2.644  0.1236 -0.4495 -0.1538
 1152WAT     H1 3858   4.676   2.530   2.717  0.5644 -0.0072 -0.4451
 1152WAT     H2 3859   4.530   2.552   2.686  0.2922 -0.7612  0.2737
 1153WAT      O 3860   2.700   5.814   4.432 -0.3716 -0.1037 -1.2464
 1153WAT     H1 3861   2.648   5.876   4.382 -1.0391  1.0148  0.7424
 1153WAT     H2 3862   2.734   5.864   4.506 -0.3846 -1.9459  0.0845
 1154WAT      O 3863   1.024   2.059   6.096  0.4269  0.0658  0.1036
 1154WAT     H1 3864   0.968   1.983   6.080  0.9469 -0.5393  1.0550
 1154WAT     H2 3865   1.023   2.070   6.191 -0.1651  1.6742 -0.0623
 1155WAT      O 3866   5.717   3.483   0.206  0.3181  0.7923  0.2234
 1155WAT     H1 3867   5.697   3.562   0.156  0.3507  1.3013  0.9947
 1155WAT     H2 3868   5.635   3.464   0.254  0.2491  0.2477 -0.0975
 1156WAT      O 3869   6.938   3.037   3.486 -0.2739 -0.0955 -0.0886
 1156WAT     H1 3870   6.870   3.054   3.551  0.1628  1.1213  0.0850
 1156WAT     H2 3871   6.890   3.027   3.403 -0.6387  2.4062 -0.2779
 1157WAT      O 3872   3.483   6.162   5.145 -0.2002  0.4457 -0.2259
 1157WAT     H1 3873   3.394   6.190   5.164 -0.4874 -0.7727  0.3467
 1157WAT     H2 3874   3.536   6.240   5.158 -1.0997  1.0126  0.1324
 1158WAT      O 3875   7.106   0.275   1.165 -0.6041 -0.5019 -0.2920
 1158WAT     H1 3876   7.031   0.314   1.211 -1.0495 -2.4101  0.6933
 1158WAT     H2 3877   7.076   0.188   1.140  0.8910 -0.8385 -0.9824
 1159WAT      O 3878   4.167   0.336   4.727 -0.0148 -0.8242  0.1837
 1159WAT     H1 3879   4.178   0.274   4.800  0.4121 -2.0707 -0.8798
 1159WAT     H2 3880   4.103   0.399   4.757  0.2247 -1.2645  1.6696
 1160WAT      O 3881   0.038   6.024   4.042 -0.2003  0.0466 -0.1077
 1160WAT     H1 3882  -0.034   5.971   4.077  0.1147  0.7535  1.6916
 1160WAT     H2 3883   0.062   6.083   4.114  1.4773  0.5518 -1.0342
 1161WAT      O 3884   3.483   4.797   5.352  0.4274 -0.0897 -0.4685
 1161WAT     H1 3885   3.408   4.818   5.406  0.7699  1.1975 -0.4651
 1161WAT     H2 3886   3.559   4.828   5.402  0.9247 -0.8570 -0.7190
 1162WAT      O 3887   5.986   7.177   4.941 -0.5735 -0.5391  0.2844
 1162WAT     H1 3888   5.964   7.251   4.997 -3.0446 -0.0284 -1.2429
 1162WAT     H2 3889   6.080   7.187   4.924 -0.6247  1.5900  0.9970
 1163WAT      O 3890   4.625   1.031   3.915  0.5193  0.5556  0.6107
 1163WAT     H1 3891   4.536   1.062   3.932 -0.0917 -1.1005  0.5999
 1163WAT     H2 3892   4.632   0.949   3.965  2.0910  0.7383  0.7211
 1164WAT      O 3893   4.290   1.331   2.716 -0.2667  0.0072 -0.0675
 1164WAT     H1 3894   4.370   1.339   2.767 -0.6714 -0.6884  0.7068
 1164WAT     H2 3895   4.273   1.420   2.683  2.7583 -0.4184 -3.3408
 1165WAT      O 3896   5.452   1.517   5.244 -0.5543 -0.6473 -0.8922
 1165WAT     H1 3897   5.377   1.569   5.274 -0.5012 -1.2046  0.2388
 1165WAT     H2 3898   5.476   1.557   5.161 -1.7175 -0.0663 -0.9789
 1166WAT      O 3899   4.758   5.686   2.539  0.3864 -0.3753 -0.0175
 1166WAT     H1 3900   4.672   5.659   2.508 -0.5414  1.8485  0.4682
 1166WAT     H2 3901   4.768   5.641   2.623 -1.3438  1.0282  1.0243
 1167WAT      O 3902   6.631   2.189   5.773 -0.0750 -0.7012  0.5277
 1167WAT     H1 3903   6.684   2.162   5.847  2.4682 -1.7440 -1.5251
 1167WAT     H2 3904   6.678   2.263   5.735 -0.9996 -0.5529 -0.3700
 1168WAT      O 3905   3.724   5.483   1.363 -0.0323 -0.2531  0.0666
 1168WAT     H1 3906   3.655   5.457   1.302  0.0639  3.0242 -1.7052
 1168WAT     H2 3907   3.681   5.545   1.422  0.9397  0.3740  0.1390
 1169WAT      O 3908   4.239   6.663   1.615 -0.0314 -0.8786 -0.0063
 1169WAT     H1 3909   4.168   6.725   1.599 -2.2654 -3.9409 -3.9097
 1169WAT     H2 3910   4.199   6.595   1.670  1.0203 -1.0342  0.5997
 1170WAT      O 3911   2.789   0.932   5.733 -0.5701  0.6049  0.4284
 1170WAT     H1 3912   2.860   0.876   5.762 -0.9167  0.3792  0.8474
 1170WAT     H2 3913   2.832   0.998   5.677 -0.1288  0.0948  0.1548
 1171WAT      O 3914   0.518   6.416   5.200 -0.1843  0.2178  0.2713
 1171WAT     H1 3915   0.512   6.511   5.193 -0.3360  0.3198  1.5382
 1171WAT     H2 3916   0.609   6.399   5.226  0.6962 -0.2138 -2.6937
 1172WAT      O 3917   2.996   0.134   2.283 -0.1933  0.3093 -0.0118
 1172WAT     H1 3918   2.909   0.107   2.253  0.0805 -1.1977  0.4561
 1172WAT     H2 3919   2.979   0.203   2.347 -1.0678  0.0189  0.0829
 1173WAT      O 3920   3.778   0.052   4.254  0.4865 -0.0345 -0.1559
 1173WAT     H1 3921   3.749   0.018   4.339  2.2004 -0.5667  0.2662
 1173WAT     H2 3922   3.812   0.140   4.273 -1.1681  0.7630 -0.7177
 1174WAT      O 3923   2.487   3.802   5.211  0.4363 -0.1910 -0.0739
 1174WAT     H1 3924   2.485   3.897   5.213  1.7867 -0.0571 -1.8550
 1174WAT     H2 3925   2.455   3.779   5.124 -0.2083 -1.3922  0.4535
 1175WAT      O 3926   3.981   0.262   5.258 -0.1503  0.2157 -0.0593
 1175WAT     H1 3927   3.928   0.186   5.281  0.1465  0.3606  1.1811
 1175WAT     H2 3928   3.989   0.312   5.340  0.5194  1.0477 -0.6079
 1176WAT      O 3929   6.979   6.001   4.989  0.1886  0.2163  0.2854
 1176WAT     H1 3930   7.017   5.973   5.072  1.6215  1.8386  0.2356
 1176WAT     H2 3931   6.959   6.094   5.001  1.0759  0.6689 -1.3590
 1177WAT      O 3932   2.284   1.896   5.097 -0.2327  0.4600 -0.1047
 1177WAT     H1 3933   2.340   1.958   5.050 -0.9307  2.8535  1.9832
 1177WAT     H2 3934   2.319   1.896   5.186 -1.0641 -1.2121  0.2551
 1178WAT      O 3935   3.506   1.267   2.426  0.1831  0.0942 -0.6698
 1178WAT     H1 3936   3.466   1.192   2.470  0.4537  0.6368  0.5572
 1178WAT     H2 3937   3.599   1.260   2.446 -0.0303  1.8795  1.3053
 1179WAT      O 3938   7.234   3.494   3.436  0.9524 -1.0832  0.4745
 1179WAT     H1 3939   7.247   3.514   3.529  2.7856  0.0251  0.0216
 1179WAT     H2 3940   7.283   3.413   3.422  2.6500 -0.0244  0.0226
 1180WAT      O 3941   7.314   6.272   4.952  0.0265 -0.0325  0.2579
 1180WAT     H1 3942   7.384   6.297   5.013  0.9201  0.3986 -0.8918
 1180WAT     H2 3943   7.338   6.316   4.870 -0.7159 -1.2159 -0.6210
 1181WAT      O 3944   6.996   4.757   4.104  0.3271  0.3901  0.4894
 1181WAT     H1 3945   6.963   4.812   4.033  1.7129 -0.3533 -0.7830
 1181WAT     H2 3946   7.081   4.794   4.125  1.0321 -0.8771  0.0012
 1182WAT      O 3947   6.826   2.628   4.077 -0.4154 -0.3544 -0.4840
 1182WAT     H1 3948   6.891   2.640   4.146 -0.8458  0.3729 -0.1939
 1182WAT     H2 3949   6.778   2.550   4.102 -3.0477  1.8688  2.1035
 1183WAT      O 3950   6.204   4.719   0.508  0.1611 -0.4651  0.5884
 1183WAT     H1 3951   6.237   4.646   0.561 -1.7856  0.0277  2.6681
 1183WAT     H2 3952   6.109   4.711   0.515 -0.1496  0.2880 -2.0601
 1184WAT      O 3953   6.003   4.989   3.355  0.6518 -0.0170  0.2779
 1184WAT     H1 3954   6.048   5.036   3.285  1.8882 -0.1068  0.9817
 1184WAT     H2 3955   6.020   5.041   3.434 -1.8617  0.8288  0.3475
 1185WAT      O 3956   0.217   3.897   5.915 -0.6106 -0.1136 -0.5149
 1185WAT     H1 3957   0.255   3.816   5.881  1.8441  0.9208 -0.4854
 1185WAT     H2 3958   0.177   3.938   5.838 -1.1289 -0.9317 -0.7020
 1186WAT      O 3959   5.144   2.442   6.113  0.7277 -0.0469 -0.1790
 1186WAT     H1 3960   5.054   2.463   6.137  0.3491 -1.5755 -0.1150
 1186WAT     H2 3961   5.191   2.525   6.118 -0.7314  0.8296 -0.4952
 1187WAT      O 3962   5.503   3.941   5.589  0.0461 -0.2466 -0.3483
 1187WAT     H1 3963   5.438   3.887   5.634 -0.4520  2.3483  2.3732
 1187WAT     H2 3964   5.587   3.916   5.628  0.0540 -0.2373 -0.3593
 1188WAT      O 3965   0.864   6.743   5.891  0.2825 -0.3393  0.0204
 1188WAT     H1 3966   0.873   6.832   5.926 -2.1715 -0.1278  0.2795
 1188WAT     H2 3967   0.788   6.748   5.833 -0.1529 -2.3637  0.3547
 1189WAT      O 3968   4.381   0.986   5.914 -0.0353 -0.4880 -0.0871
 1189WAT     H1 3969   4.339   1.012   5.997 -2.5910  1.5325 -1.8483
 1189WAT     H2 3970   4.447   1.052   5.899 -0.9335  0.3182 -0.5815
 1190WAT      O 3971   7.622   1.964   0.427  0.5062 -0.6181 -0.8046
 1190WAT     H1 3972   7.571   1.903   0.375 -0.0715 -0.8745  0.0302
 1190WAT     H2 3973   7.704   1.918   0.446 -0.6516 -1.9487  1.3736
 1191WAT      O 3974   6.365   3.075   2.133  0.2977 -0.5988 -0.1170
 1191WAT     H1 3975   6.426   3.010   2.166  1.8620  1.3512  1.0991
 1191WAT     H2 3976   6.322   3.110   2.211  0.4606  0.7177 -0.5907
 1192WAT      O 3977   0.649   3.631   4.128 -0.0158 -0.3877 -0.5030
 1192WAT     H1 3978   0.734   3.595   4.155  0.1482  2.1413  3.0693
 1192WAT     H2 3979   0.671   3.717   4.092 -0.9197 -0.7760 -2.0486
 1193WAT      O 3980   3.888   5.842   5.683  0.3610  0.7364  0.1265
 1193WAT     H1 3981   3.857   5.752   5.686  1.9818  0.1601  0.6293
 1193WAT     H2 3982   3.835   5.889   5.747  0.5268 -0.2084  0.9731
 1194WAT      O 3983   0.534   0.093   1.383  0.2391 -0.8390 -0.4437
 1194WAT     H1 3984   0.610   0.060   1.336  1.3075  0.4596  0.2994
 1194WAT     H2 3985   0.567   0.167   1.433 -1.0077 -1.6086  1.6856
 1195WAT      O 3986   0.081   4.962   4.611 -0.3687  0.0664 -0.5470
 1195WAT     H1 3987   0.032   5.030   4.565  0.1706 -0.1066 -1.3839
 1195WAT     H2 3988   0.132   5.011   4.676 -1.0887  0.3124 -0.1466
 1196WAT      O 3989   6.629   2.873   1.103  0.2571  0.2218 -0.3455
 1196WAT     H1 3990   6.544   2.836   1.127  0.9589 -1.0595  0.2838
 1196WAT     H2 3991   6.685   2.797   1.088  0.7921  0.9881 -2.7887
 1197WAT      O 3992   3.804   0.732   4.261  0.0012  0.6570  0.8134
 1197WAT     H1 3993   3.760   0.652   4.235  5.0124 -1.8322 -1.5066
 1197WAT     H2 3994   3.820   0.723   4.355  0.1588 -0.9353  0.6529
 1198WAT      O 3995   3.571   0.371   0.750  0.3274 -0.0683  0.0102
 1198WAT     H1 3996   3.486   0.407   0.775 -1.5612 -1.6128 -3.4887
 1198WAT     H2 3997   3.592   0.309   0.820 -2.0947 -0.5721  0.3774
 1199WAT      O 3998   1.163   7.146   5.063  0.0313  0.2420 -0.4015
 1199WAT     H1 3999   1.123   7.133   4.977 -0.4815  0.8356 -0.2599
 1199WAT     H2 4000   1.254   7.166   5.044 -0.2672  1.2278 -0.8673
 1200WAT      O 4001   6.311   1.131   4.994  0.5857 -0.4602 -0.0917
 1200WAT     H1 4002   6.375   1.083   5.046 -0.0444 -1.3228 -0.0935
 1200WAT     H2 4003   6.243   1.067   4.974 -0.1674  0.3795 -0.2851
 1201WAT      O 4004   0.505   5.411   5.868  0.4891 -0.2307  0.1521
 1201WAT     H1 4005   0.478   5.357   5.794 -0.5901  0.4931  0.0061
 1201WAT     H2 4006   0.595   5.436   5.847  0.5038 -0.7770 -0.4685
 1202WAT      O 4007   3.283   6.470   3.321  0.1594  0.1856  0.1429
 1202WAT     H1 4008   3.300   6.507   3.234  0.5737  2.7341  1.1944
 1202WAT     H2 4009   3.229   6.536   3.365 -0.4327 -1.2467  1.6908
 1203WAT      O 4010   5.401   2.603   2.470 -0.2576 -0.0102  0.1054
 1203WAT     H1 4011   5.388   2.611   2.565 -1.5866 -0.0332 -0.0591
 1203WAT     H2 4012   5.329   2.547   2.441 -0.6177  1.0495 -1.1036
 1204WAT      O 4013   6.597   1.448   0.047 -0.0914 -0.2419  0.3859
 1204WAT     H1 4014   6.579   1.486  -0.039  0.4348  0.3833  0.5434
 1204WAT     H2 4015   6.689   1.470   0.065  0.1962 -1.4664  0.5550
 1205WAT      O 4016   0.867   0.256   0.848  0.2000 -0.3960 -0.2448
 1205WAT     H1 4017   0.931   0.246   0.919  2.5589  0.3668 -2.1497
 1205WAT     H2 4018   0.831   0.344   0.860 -0.2256 -0.6665  0.5799
 1206WAT      O 4019   4.563   7.145   0.304 -0.5848 -0.1599  0.2750
 1206WAT     H1 4020   4.496   7.104   0.249  0.4657  0.0720 -1.2593
 1206WAT     H2 4021   4.643   7.138   0.252  0.1573  1.4296  1.1473
 1207WAT      O 4022   1.280   0.079   2.542  0.7111 -0.6544 -0.2479
 1207WAT     H1 4023   1.332   0.018   2.489  1.0546 -1.9777  1.5057
 1207WAT     H2 4024   1.320   0.075   2.628 -0.1513  1.0342  0.2683
 1208WAT      O 4025   2.927   0.053   4.264  0.2862 -0.5621 -0.5250
 1208WAT     H1 4026   2.933   0.132   4.317  0.9262 -0.8179 -0.1936
 1208WAT     H2 4027   2.853   0.004   4.300 -0.8334  0.3915 -1.4588
 1209WAT      O 4028   1.095   5.555   0.439  0.0824 -0.9069 -0.1994
 1209WAT     H1 4029   1.132   5.625   0.386 -0.7975 -0.5669 -0.3717
 1209WAT     H2 4030   1.161   5.539   0.507  0.0892  0.4314  0.1455
 1210WAT      O 4031   0.304   1.444   2.372  0.1570 -0.0159  0.1922
 1210WAT     H1 4032   0.267   1.456   2.285 -1.0889 -1.0364  0.5380
 1210WAT     H2 4033   0.337   1.530   2.397 -2.7708  1.2368  0.1565
 1211WAT      O 4034   1.648   5.484   4.900 -0.0634  0.3906 -0.5061
 1211WAT     H1 4035   1.628   5.393   4.922 -0.0437  0.4374 -0.2968
 1211WAT     H2 4036   1.616   5.534   4.974  0.4761  0.5013 -0.3405
 1212WAT      O 4037   4.492   2.352   5.744 -0.5567  0.3263 -0.5591
 1212WAT     H1 4038   4.487   2.263   5.780  1.0037  0.3704 -0.1861
 1212WAT     H2 4039   4.474   2.409   5.819 -0.1698  0.3502 -0.4822
 1213WAT      O 4040   6.084   1.082   4.615  0.7956  0.4702  0.4727
 1213WAT     H1 4041   5.995   1.047   4.620  1.2447 -0.5481  2.3263
 1213WAT     H2 4042   6.085   1.155   4.677  0.8284  1.6132 -0.8072
 1214WAT      O 4043   4.937   6.978   1.741  0.3558  0.2233  0.2195
 1214WAT     H1 4044   4.857   7.024   1.714 -0.7851 -1.6539  0.1789
 1214WAT     H2 4045   5.008   7.033   1.709 -0.9036  1.7274 -0.1722
 1215WAT      O 4046   5.257   5.885   0.643 -0.2426  0.1719 -0.3608
 1215WAT     H1 4047   5.265   5.790   0.639 -0.6999  0.1624 -1.2184
 1215WAT     H2 4048   5.186   5.900   0.706 -2.1367 -0.1801 -2.2947
 1216WAT      O 4049   3.202   0.015   5.914 -0.2161 -0.1099 -0.0423
 1216WAT     H1 4050   3.296   0.004   5.929  0.3513  0.7217 -2.5182
 1216WAT     H2 4051   3.162  -0.056   5.963  1.6499 -0.2855  1.3629
 1217WAT      O 4052   6.744   2.323   5.278  0.2986 -0.1573 -0.0530
 1217WAT     H1 4053   6.675   2.337   5.343  1.3727 -0.8472  1.2722
 1217WAT     H2 4054   6.709   2.255   5.220  0.2239 -1.2265  1.2015
 1218WAT      O 4055   7.559   1.120   6.202  0.2924  0.2750  0.6629
 1218WAT     H1 4056   7.606   1.197   6.235 -0.8264  0.8986  0.8326
 1218WAT     H2 4057   7.500   1.155   6.135 -0.7434 -0.3282  1.2488
 1219WAT      O 4058   3.990   1.245   3.620  0.2303  0.0324  0.3942
 1219WAT     H1 4059   3.897   1.259   3.635 -0.1308 -0.2026 -1.4214
 1219WAT     H2 4060   4.031   1.262   3.705 -1.6095 -1.5068  1.6557
 1220WAT      O 4061   3.878   6.257   1.078  0.2914 -0.0503 -0.7877
 1220WAT     H1 4062   3.854   6.346   1.053 -0.1100  0.0807  0.0315
 1220WAT     H2 4063   3.892   6.261   1.173  0.0054 -0.9141 -0.6978
 1221WAT      O 4064   2.330   5.676   1.090  0.2545 -0.6165 -0.5260
 1221WAT     H1 4065   2.314   5.594   1.137  0.5067 -0.4734 -0.1856
 1221WAT     H2 4066   2.261   5.680   1.024 -1.0050 -0.1154  0.7605
 1222WAT      O 4067   7.459   0.001   4.497  0.3754  0.0623  0.0541
 1222WAT     H1 4068   7.429   0.020   4.586  1.1019 -1.7540  0.7330
 1222WAT     H2 4069   7.379   0.000   4.444  0.0689  2.5994  0.3377
 1223WAT      O 4070   5.858   1.444   3.980 -0.4033 -0.1298 -0.1378
 1223WAT     H1 4071   5.828   1.536   3.980 -0.1639 -0.0513 -0.4156
 1223WAT     H2 4072   5.899   1.432   4.065 -2.1761 -0.5506  0.7010
 1224WAT      O 4073   7.088   1.795   5.998 -0.0063 -0.0704 -0.3146
 1224WAT     H1 4074   7.170   1.747   5.987 -0.6522 -1.3548  0.2270
 1224WAT     H2 4075   7.019   1.729   5.986 -0.9302  0.7344  0.3369
 1225WAT      O 4076   1.567   1.654   3.404  0.3719 -0.4060  0.1497
 1225WAT     H1 4077   1.632   1.585   3.392  2.7215  1.4214  1.5278
 1225WAT     H2 4078   1.562   1.667   3.499 -0.2010  1.1509 -0.0662
 1226WAT      O 4079   4.316   6.795   0.726  0.5966  0.0828  0.4330
 1226WAT     H1 4080   4.402   6.762   0.701  0.4227 -0.5517  0.6601
 1226WAT     H2 4081   4.256   6.762   0.659  0.3897 -0.2473  0.7727
 1227WAT      O 4082   5.753   4.745   5.814  0.7370 -0.2088 -0.2845
 1227WAT     H1 4083   5.729   4.813   5.877  0.7446 -2.1758  1.9807
 1227WAT     H2 4084   5.841   4.718   5.840  1.0703 -0.5590 -1.6568
 1228WAT      O 4085   6.466   4.478   0.892 -0.0656  0.2275 -0.0924
 1228WAT     H1 4086   6.477   4.481   0.987  2.2484  0.0417 -0.2949
 1228WAT     H2 4087   6.510   4.557   0.860 -1.9820  1.0046 -0.9702
 1229WAT      O 4088   0.019   4.354   3.139  0.0113 -0.0982  0.0290
 1229WAT     H1 4089   0.112   4.364   3.120 -0.1649 -2.0287 -2.4079
 1229WAT     H2 4090   0.009   4.262   3.165 -1.2478 -0.0139 -0.0697
 1230WAT      O 4091   3.749   1.406   5.269 -0.7558 -0.0672  0.5300
 1230WAT     H1 4092   3.654   1.413   5.257 -0.5121  2.0864 -0.5594
 1230WAT     H2 4093   3.786   1.474   5.213  1.3344  0.4474  2.3667
 1231WAT      O 4094   7.240   0.356   4.376 -0.3035 -0.4212  0.3263
 1231WAT     H1 4095   7.186   0.318   4.306  0.7206 -0.4459 -0.4758
 1231WAT     H2 4096   7.227   0.450   4.367  0.4715 -0.3741 -0.4647
 1232WAT      O 4097   7.102   2.426   1.408 -0.2870 -0.8881  0.0724
 1232WAT     H1 4098   7.146   2.391   1.486 -1.8314 -0.6251  1.0942
 1232WAT     H2 4099   7.088   2.350   1.352  1.2295 -1.0165 -0.1887
 1233WAT      O 4100   7.593   5.031   1.782  0.0222  0.0780  0.2426
 1233WAT     H1 4101   7.632   5.117   1.796 -1.4839  1.0383 -1.0507
 1233WAT     H2 4102   7.503   5.050   1.756 -0.2501 -1.8857 -0.3933
 1234WAT      O 4103   5.339   2.646   2.758  0.1898 -0.1666 -0.4805
 1234WAT     H1 4104   5.373   2.571   2.808 -1.7214 -0.6134  0.2411
 1234WAT     H2 4105   5.358   2.722   2.814 -0.4576 -0.4749  0.1808
 1235WAT      O 4106   1.033   1.109   1.024  0.0257 -0.0157 -0.4352
 1235WAT     H1 4107   1.103   1.104   1.090  0.6538  1.6351 -0.9263
 1235WAT     H2 4108   1.023   1.019   0.993  2.1635 -0.2733 -0.5414
 1236WAT      O 4109   5.771   4.751   0.813  0.0880  0.0876 -0.3429
 1236WAT     H1 4110   5.693   4.762   0.867 -2.4383 -2.2688 -3.0787
 1236WAT     H2 4111   5.821   4.682   0.857 -1.8910 -1.7559 -0.7500
 1237WAT      O 4112   6.292   5.018   2.961  0.6961 -0.0245 -0.2875
 1237WAT     H1 4113   6.342   5.039   3.040  0.7770 -1.8200  0.1932
 1237WAT     H2 4114   6.300   4.923   2.952 -1.5639 -0.2205 -0.9123
 1238WAT      O 4115   0.019   2.350   3.833 -0.1382  0.5216  0.8527
 1238WAT     H1 4116   0.028   2.295   3.910  2.4148  0.1283  0.3658
 1238WAT     H2 4117   0.009   2.288   3.760  0.8169  0.7343  0.5213
 1239WAT      O 4118   4.251   5.224   2.064  0.8914  0.2704 -0.0976
 1239WAT     H1 4119   4.255   5.224   2.159  1.8217  1.0719 -0.1253
 1239WAT     H2 4120   4.157   5.230   2.044  0.7354  0.7659  0.7629
 1240WAT      O 4121   0.061   4.342   0.508 -0.6462  0.1554 -0.8463
 1240WAT     H1 4122   0.069   4.275   0.576  1.3248  1.3639  0.2033
 1240WAT     H2 4123  -0.029   4.376   0.518 -0.7672 -0.4740  0.3923
 1241WAT      O 4124   6.602   6.015   3.841 -0.0119 -0.2685 -0.5159
 1241WAT     H1 4125   6.609   5.921   3.824  0.8688 -0.2428 -0.3417
 1241WAT     H2 4126   6.554   6.021   3.923  0.7088 -0.6073 -0.0591
 1242WAT      O 4127   4.169   5.231   2.325 -0.3618  0.1411  0.6086
 1242WAT     H1 4128   4.134   5.319   2.342  2.6527  1.4787  0.5503
 1242WAT     H2 4129   4.232   5.216   2.395 -1.0682 -2.2281  0.8377
 1243WAT      O 4130   3.905   5.471   3.907 -0.4353  0.4057 -0.5387
 1243WAT     H1 4131   3.884   5.397   3.964  2.6815 -0.9499 -0.9900
 1243WAT     H2 4132   3.896   5.548   3.964 -0.5602 -0.6137  0.8629
 1244WAT      O 4133   0.571   2.802   0.598  0.7636  0.1466  0.4212
 1244WAT     H1 4134   0.645   2.744   0.581  1.2433  0.7052  0.5425
 1244WAT     H2 4135   0.608   2.872   0.653  0.5557  1.3162 -0.8498
 1245WAT      O 4136   5.640   6.230   1.788  0.3610 -0.1290  0.2961
 1245WAT     H1 4137   5.550   6.205   1.809  0.3542 -0.9367 -0.6162
 1245WAT     H2 4138   5.636   6.256   1.696  1.0403 -0.0699  0.2786
 1246WAT      O 4139   6.860   2.413   0.983  0.7228 -0.2783 -0.0676
 1246WAT     H1 4140   6.868   2.501   1.019 -0.0285 -0.3507  0.2842
 1246WAT     H2 4141   6.766   2.395   0.981  0.9034 -1.7565  1.6204
 1247WAT      O 4142   4.023   3.608   6.134  0.1582  0.3335 -0.1798
 1247WAT     H1 4143   4.035   3.521   6.172 -2.2131 -0.1561 -0.4056
 1247WAT     H2 4144   4.020   3.667   6.209  2.7395  0.4294 -0.0632
 1248WAT      O 4145   2.169   6.824   4.776 -0.4878  0.0364 -0.7396
 1248WAT     H1 4146   2.233   6.769   4.732 -1.2688 -1.0373 -0.5978
 1248WAT     H2 4147   2.129   6.766   4.842 -0.5085  1.1191  0.2414
 1249WAT      O 4148   3.568   3.329   2.263 -0.4227 -0.3969 -0.3642
 1249WAT     H1 4149   3.547   3.237   2.243  1.5250 -0.8673 -0.4728
 1249WAT     H2 4150   3.580   3.369   2.178 -0.0936 -0.3394 -0.2894
 1250WAT      O 4151   6.329   3.691   2.058 -0.5191 -0.4371  0.3015
 1250WAT     H1 4152   6.411   3.696   2.008 -1.0690  0.3619 -0.5584
 1250WAT     H2 4153   6.336   3.609   2.107 -0.0272 -1.3602 -1.2438
 1251WAT      O 4154   1.251   7.080   2.401 -0.6914  0.0245  0.0080
 1251WAT     H1 4155   1.227   6.992   2.430 -1.4655  0.3151  0.2597
 1251WAT     H2 4156   1.212   7.138   2.466 -0.6639  0.5837 -0.4728
 1252WAT      O 4157   6.185   3.330   3.743 -0.0214 -0.7348 -0.3571
 1252WAT     H1 4158   6.100   3.369   3.726  1.3647  1.3654 -3.3110
 1252WAT     H2 4159   6.239   3.403   3.774  0.9342 -1.8510  0.6994
 1253WAT      O 4160   4.514   5.081   3.656  0.4555  0.1521 -0.6266
 1253WAT     H1 4161   4.520   5.057   3.748  1.7807  1.0220 -0.4593
 1253WAT     H2 4162   4.568   5.017   3.610 -0.0016 -0.1328 -0.7656
 1254WAT      O 4163   4.457   6.258   3.002  0.4557 -0.4070  0.8441
 1254WAT     H1 4164   4.394   6.215   3.060  0.1903 -1.8919 -0.4613
 1254WAT     H2 4165   4.403   6.303   2.936  0.7554  0.0887  0.9292
 1255WAT      O 4166   5.270   2.879   3.770  0.3018 -0.0349  0.1789
 1255WAT     H1 4167   5.280   2.791   3.734  0.8922 -0.1751  0.6750
 1255WAT     H2 4168   5.309   2.937   3.704  0.2404 -0.1744  0.0200
 1256WAT      O 4169   6.581   0.421   1.109  0.0725  0.2747  0.3691
 1256WAT     H1 4170   6.596   0.473   1.030  1.9551  0.9116  1.0836
 1256WAT     H2 4171   6.562   0.333   1.077  3.7306 -0.2087 -0.8586
 1257WAT      O 4172   5.679   0.203   3.635  0.0772  0.2489 -0.0973
 1257WAT     H1 4173   5.753   0.217   3.576  1.9395  2.0357  2.4320
 1257WAT     H2 4174   5.720   0.186   3.720 -2.4678 -1.1010  0.9710
 1258WAT      O 4175   4.916   2.839   2.068  0.0611  0.3001  0.1653
 1258WAT     H1 4176   4.929   2.751   2.034  2.0857  0.3938  0.5750
 1258WAT     H2 4177   4.928   2.830   2.163 -1.4309  0.7408  0.4155
 1259WAT      O 4178   5.172   2.859   2.657 -0.1854 -0.7167  0.0837
 1259WAT     H1 4179   5.091   2.812   2.635  0.1116 -1.4050  0.4412
 1259WAT     H2 4180   5.201   2.819   2.739  0.9578 -1.0211 -0.4616
 1260WAT      O 4181   0.057   1.437   1.958  0.2870  0.4247  0.4008
 1260WAT     H1 4182   0.026   1.346   1.967  3.4039 -0.5395  3.7077
 1260WAT     H2 4183  -0.019   1.490   1.981 -1.2354 -1.3361 -0.2524
 1261WAT      O 4184   3.238   3.504   0.384  0.2706 -0.5734  0.0445
 1261WAT     H1 4185   3.313   3.460   0.343  0.0563  0.9376 -2.1010
 1261WAT     H2 4186   3.192   3.434   0.430  1.6491 -1.9801 -0.6230
 1262WAT      O 4187   5.805   1.502   5.272 -0.2384 -0.3530 -0.4299
 1262WAT     H1 4188   5.838   1.434   5.331 -0.3165  1.2116  1.5101
 1262WAT     H2 4189   5.722   1.529   5.311  1.1442  2.8736  0.6178
 1263WAT      O 4190   4.425   1.455   0.747  0.1063 -0.6687  0.1279
 1263WAT     H1 4191   4.502   1.483   0.698  0.0848 -0.9495 -0.0655
 1263WAT     H2 4192   4.409   1.365   0.718  1.5714 -1.7661  2.4321
 1264WAT      O 4193   2.688   1.912   2.002 -0.1054  0.6404 -0.2926
 1264WAT     H1 4194   2.678   1.979   1.934 -1.1115  1.8769  1.0016
 1264WAT     H2 4195   2.669   1.958   2.083  0.2891 -0.9840  0.7607
 1265WAT      O 4196   2.626   2.605   4.864 -0.0141  0.1451 -0.7677
 1265WAT     H1 4197   2.687   2.672   4.896 -1.8381  3.1550 -3.0885
 1265WAT     H2 4198   2.640   2.530   4.923  2.7999  2.1809  1.4386
 1266WAT      O 4199   3.660   7.000   4.366 -0.0688 -0.1076  0.0764
 1266WAT     H1 4200   3.657   6.932   4.298 -2.1913  0.0257 -0.0436
 1266WAT     H2 4201   3.628   6.956   4.445  1.1015  0.0924  0.6769
 1267WAT      O 4202   3.534   6.901   2.879  0.3587 -0.3278  0.7034
 1267WAT     H1 4203   3.446   6.877   2.850  0.1353  1.0139  0.2292
 1267WAT     H2 4204   3.540   6.995   2.865  1.9500 -0.4237  0.5517
 1268WAT      O 4205   6.198   3.855   1.660  0.0434 -0.3049 -0.3667
 1268WAT     H1 4206   6.290   3.843   1.640  0.1577 -0.1574  0.0594
 1268WAT     H2 4207   6.196   3.928   1.722 -0.4300  0.2811 -1.0517
 1269WAT      O 4208   5.854   1.056   5.646  0.6772 -0.1711  0.8662
 1269WAT     H1 4209   5.929   1.093   5.692  0.8609  0.0447  0.4000
 1269WAT     H2 4210   5.790   1.128   5.644  0.8712 -0.0087  0.3322
 1270WAT      O 4211   0.870   0.329   2.356  0.5176  0.4017 -0.4350
 1270WAT     H1 4212   0.941   0.272   2.385  0.3249 -0.0380 -0.8070
 1270WAT     H2 4213   0.870   0.402   2.418  0.2524 -0.3991  0.5210
 1271WAT      O 4214   1.859   0.806   1.959 -0.6557 -0.1184  0.3151
 1271WAT     H1 4215   1.822   0.753   1.888  0.9117 -1.0217  0.1005
 1271WAT     H2 4216   1.794   0.802   2.029 -1.3315 -0.9182 -0.3337
 1272WAT      O 4217   3.346   2.319   4.374 -0.0826 -0.2795  0.2098
 1272WAT     H1 4218   3.264   2.273   4.387 -1.0786  1.1356 -0.7383
 1272WAT     H2 4219   3.360   2.368   4.455 -1.1005  0.8089 -0.2429
 1273WAT      O 4220   5.826   0.405   0.064  0.3319  0.2076  0.2409
 1273WAT     H1 4221   5.731   0.416   0.066  0.2502 -0.5150  1.0525
 1273WAT     H2 4222   5.852   0.398   0.155  1.2487  0.9670  0.0486
 1274WAT      O 4223   3.727   5.372   5.715 -0.5232 -0.0800  0.0106
 1274WAT     H1 4224   3.746   5.465   5.716  0.0069 -0.1702 -1.0214
 1274WAT     H2 4225   3.635   5.366   5.741  0.0230  0.5489  2.3453
 1275WAT      O 4226   7.041   3.381   2.804 -0.1182 -0.1247  0.5838
 1275WAT     H1 4227   6.959   3.336   2.825  0.1857  0.1803  2.6132
 1275WAT     H2 4228   7.095   3.313   2.763 -1.6539 -0.1014 -1.6239
 1276WAT      O 4229   5.036   0.886   1.830 -0.3740  0.0468  0.0940
 1276WAT     H1 4230   5.057   0.954   1.894 -2.7554 -1.6804  2.9797
 1276WAT     H2 4231   4.945   0.863   1.849 -0.6358 -1.8177 -2.8281
 1277WAT      O 4232   2.003   1.118   3.589  0.0932 -0.2765  0.0715
 1277WAT     H1 4233   1.959   1.201   3.609 -1.0518 -0.7344 -0.4782
 1277WAT     H2 4234   2.096   1.140   3.588 -0.2058  1.0431 -0.2509
 1278WAT      O 4235   3.346   5.203   3.037 -0.4161  0.0460  0.3695
 1278WAT     H1 4236   3.359   5.296   3.017  1.4765  0.4975  3.0648
 1278WAT     H2 4237   3.318   5.203   3.129  1.6267 -2.0498  1.0997
 1279WAT      O 4238   2.751   4.386   3.051 -0.5264  0.3215 -0.4677
 1279WAT     H1 4239   2.674   4.343   3.015  0.7151 -0.3724 -2.4599
 1279WAT     H2 4240   2.808   4.400   2.975  0.6272  2.2888  0.6794
 1280WAT      O 4241   5.252   6.495   2.583  0.6477  0.4390 -0.2999
 1280WAT     H1 4242   5.267   6.421   2.642 -0.4218 -0.8537 -1.5744
 1280WAT     H2 4243   5.169   6.532   2.614  0.0137 -0.3252 -1.0122
 1281WAT      O 4244   4.432   4.250   5.108 -0.4264 -0.2392 -0.4369
 1281WAT     H1 4245   4.375   4.257   5.184  0.5470  1.9264  0.1634
 1281WAT     H2 4246   4.383   4.291   5.037  0.2803  1.5554  0.0621
 1282WAT      O 4247   3.197   3.433   2.808 -0.1739 -0.4623 -0.5094
 1282WAT     H1 4248   3.160   3.390   2.885  1.7886  0.2008  0.8982
 1282WAT     H2 4249   3.240   3.362   2.760 -1.2830 -0.8558 -0.9555
 1283WAT      O 4250   4.340   6.392   4.398 -0.3728  0.2327 -0.6104
 1283WAT     H1 4251   4.373   6.426   4.316  0.1166  0.9649 -0.1145
 1283WAT     H2 4252   4.395   6.316   4.417  1.1775  1.5398  0.2949
 1284WAT      O 4253   2.774   5.186   4.053  0.7601 -0.1856  0.8481
 1284WAT     H1 4254   2.839   5.191   4.122  0.9191 -0.0730  0.6894
 1284WAT     H2 4255   2.803   5.248   3.987  0.5589 -0.2240  0.7208
 1285WAT      O 4256   3.337   4.785   4.792 -0.3759  0.4688  0.1730
 1285WAT     H1 4257   3.406   4.732   4.832  0.3068  0.4772 -0.9475
 1285WAT     H2 4258   3.367   4.875   4.800 -1.1861  0.6606  1.4001
 1286WAT      O 4259   4.451   2.146   1.975 -0.2852 -0.0701 -0.2748
 1286WAT     H1 4260   4.435   2.082   1.905  0.8441  2.6199 -3.2540
 1286WAT     H2 4261   4.369   2.197   1.980 -0.0542  0.3089 -0.2933
 1287WAT      O 4262   7.451   4.601   0.412  0.3576  0.2996  0.6036
 1287WAT     H1 4263   7.360   4.629   0.413  0.1280 -0.4586  1.0237
 1287WAT     H2 4264   7.474   4.599   0.319  0.0320  0.7284  0.5076
 1288WAT      O 4265   3.262   5.486   1.597 -0.0288  0.2785 -0.3715
 1288WAT     H1 4266   3.176   5.502   1.635  0.4974  0.8498  0.6070
 1288WAT     H2 4267   3.284   5.568   1.553 -0.6617 -0.3977 -2.0239
 1289WAT      O 4268   5.357   0.915   1.260  0.3142 -0.2890 -0.3266
 1289WAT     H1 4269   5.330   0.973   1.332  1.5126  0.0156 -0.1081
 1289WAT     H2 4270   5.331   0.828   1.289  0.5029 -0.1290  0.3444
 1290WAT      O 4271   4.110   5.517   5.890 -0.2192 -0.0840  0.2042
 1290WAT     H1 4272   4.038   5.580   5.900  0.3493  0.3143  2.3589
 1290WAT     H2 4273   4.069   5.432   5.905 -0.2389  0.1658  1.7567
 1291WAT      O 4274   6.661   4.551   3.072  0.1657 -0.1611  0.8110
 1291WAT     H1 4275   6.737   4.538   3.016 -0.5948 -1.7161  0.0588
 1291WAT     H2 4276   6.696   4.571   3.158  1.4353 -1.2748  0.5751
 1292WAT      O 4277   6.049   1.613   3.291 -0.4413  0.6119 -0.4319
 1292WAT     H1 4278   6.126   1.671   3.291  1.9530 -2.3000 -1.0739
 1292WAT     H2 4279   6.029   1.600   3.199 -1.4412  0.9349 -0.2763
 1293WAT      O 4280   1.605   6.191   2.026  0.6310 -0.0577 -0.3565
 1293WAT     H1 4281   1.520   6.151   2.009  0.7383  0.3500 -2.0380
 1293WAT     H2 4282   1.626   6.165   2.115 -2.2556  1.6347  0.9799
 1294WAT      O 4283   0.632   2.182   1.162  0.3811 -0.5533  0.5148
 1294WAT     H1 4284   0.551   2.171   1.212 -0.1931 -0.8004 -0.4476
 1294WAT     H2 4285   0.699   2.140   1.215  0.1157  0.6974  1.9001
 1295WAT      O 4286   7.370   4.142   3.216 -0.2494  0.0179  0.3944
 1295WAT     H1 4287   7.465   4.128   3.211 -0.2903 -1.9303  2.9738
 1295WAT     H2 4288   7.360   4.217   3.274 -0.2997  0.2688  0.0639
 1296WAT      O 4289   6.281   5.497   3.065  0.3307  0.7050  0.0575
 1296WAT     H1 4290   6.316   5.478   3.152 -0.4309  0.1521  0.2610
 1296WAT     H2 4291   6.273   5.592   3.062 -0.0394  0.7073  0.7671
 1297WAT      O 4292   3.836   2.383   4.219  0.3910  0.1382  0.1779
 1297WAT     H1 4293   3.747   2.367   4.250  0.4115  0.1590  0.2479
 1297WAT     H2 4294   3.876   2.296   4.217 -0.1891 -0.1232 -1.6013
 1298WAT      O 4295   1.987   5.362   3.872 -0.1157 -0.1957 -0.3252
 1298WAT     H1 4296   1.896   5.367   3.902 -0.2344  0.1477 -0.7288
 1298WAT     H2 4297   2.039   5.375   3.951 -0.4267  1.7307 -0.3833
 1299WAT      O 4298   5.340   2.870   2.402 -0.4601  0.1022 -0.4699
 1299WAT     H1 4299   5.271   2.878   2.469  1.4461  1.2051  1.4931
 1299WAT     H2 4300   5.370   2.780   2.410 -0.5074  0.1153 -0.1091
 1300WAT      O 4301   0.425   5.904   1.654 -0.0709 -0.1884 -0.6171
 1300WAT     H1 4302   0.337   5.908   1.617 -0.2803  0.2701 -0.0911
 1300WAT     H2 4303   0.411   5.903   1.749  0.4895 -0.1766 -0.5313
 1301WAT      O 4304   1.668   7.206   2.706  0.3988 -0.5080  0.1197
 1301WAT     H1 4305   1.614   7.149   2.651 -3.2830 -0.1148  2.9624
 1301WAT     H2 4306   1.683   7.156   2.786  0.8520  0.8994  0.9612
 1302WAT      O 4307   3.761   0.303   0.236  0.8933 -0.2080  0.2326
 1302WAT     H1 4308   3.731   0.390   0.264 -0.1850  0.4392 -2.5956
 1302WAT     H2 4309   3.681   0.255   0.216  1.4794 -0.1816 -2.6220
 1303WAT      O 4310   6.577   7.124   2.711  0.1619 -0.4050 -0.0456
 1303WAT     H1 4311   6.618   7.109   2.796  2.1174 -0.2555 -0.9068
 1303WAT     H2 4312   6.537   7.040   2.689  0.7775 -0.8423  0.4395
 1304WAT      O 4313   4.997   1.152   2.429 -0.3270  0.4838  0.3769
 1304WAT     H1 4314   5.045   1.228   2.460 -0.5457  0.7791  0.0005
 1304WAT     H2 4315   4.965   1.109   2.508  0.1365  0.5560  0.6078
 1305WAT      O 4316   5.041   2.656   4.006  0.1501 -0.0262 -0.4583
 1305WAT     H1 4317   4.955   2.666   4.046  0.5353  0.1828  0.3476
 1305WAT     H2 4318   5.028   2.592   3.936 -0.7687  0.4382 -0.7171
 1306WAT      O 4319   4.815   3.999   2.078  0.4312 -0.2396  0.2738
 1306WAT     H1 4320   4.855   3.953   2.004  0.9124  2.9324 -1.6371
 1306WAT     H2 4321   4.721   3.997   2.059  0.4840 -0.0906 -0.0127
 1307WAT      O 4322   0.274   5.427   0.355  0.4006 -0.1401 -0.1695
 1307WAT     H1 4323   0.328   5.390   0.425 -0.6484  0.9076  1.2493
 1307WAT     H2 4324   0.319   5.508   0.331 -1.2540  1.5483  2.1057
 1308WAT      O 4325   5.165   6.858   6.196 -0.5659 -0.1265 -0.2549
 1308WAT     H1 4326   5.108   6.857   6.273  0.2645 -0.3285  0.3684
 1308WAT     H2 4327   5.220   6.781   6.206  1.0426  1.0061  0.1023
 1309WAT      O 4328   1.320   4.183   3.432  0.0758  0.1345 -0.0602
 1309WAT     H1 4329   1.262   4.181   3.508  0.2845  0.4923  0.1118
 1309WAT     H2 4330   1.331   4.276   3.412  1.4991  0.1470  0.6278
 1310WAT      O 4331   6.898   6.573   1.542 -0.4067 -0.0669  0.4094
 1310WAT     H1 4332   6.929   6.530   1.462 -0.9725 -0.3687  0.3497
 1310WAT     H2 4333   6.963   6.550   1.608 -1.4447 -2.2294  0.7301
 1311WAT      O 4334   5.804   6.693   2.381  0.0408  0.6552 -0.0301
 1311WAT     H1 4335   5.852   6.628   2.432 -1.2087  0.5008  0.9985
 1311WAT     H2 4336   5.712   6.664   2.386 -0.3642  1.7804 -0.6554
 1312WAT      O 4337   5.710   1.694   1.859  0.4404 -0.1383 -0.6000
 1312WAT     H1 4338   5.733   1.608   1.894  0.0762 -0.0545 -0.1522
 1312WAT     H2 4339   5.695   1.748   1.936 -2.1784 -0.4218 -0.8208
 1313WAT      O 4340   1.065   0.695   2.045 -0.0851  0.4166 -0.1675
 1313WAT     H1 4341   1.005   0.661   2.111  0.6041 -0.5386 -0.0087
 1313WAT     H2 4342   1.149   0.652   2.063  0.2040  0.3754 -1.4611
 1314WAT      O 4343   3.951   6.658   5.959 -0.5425  0.2377  0.4494
 1314WAT     H1 4344   3.880   6.684   5.900 -0.4264  0.0407  0.2251
 1314WAT     H2 4345   3.944   6.720   6.032  1.6407  2.9365 -1.4445
 1315WAT      O 4346   6.832   5.809   1.435  0.1386 -0.3889  0.3954
 1315WAT     H1 4347   6.915   5.769   1.458  0.9928 -0.5501 -2.5455
 1315WAT     H2 4348   6.766   5.742   1.456  1.2103 -2.0251 -1.1548
 1316WAT      O 4349   6.889   1.289   0.536  0.2861 -0.0256 -0.3704
 1316WAT     H1 4350   6.877   1.245   0.620 -1.5254 -0.7583 -0.9731
 1316WAT     H2 4351   6.905   1.218   0.474 -0.6314  0.3029 -1.0060
 1317WAT      O 4352   3.852   2.548   5.699 -0.7246  0.7662 -0.0239
 1317WAT     H1 4353   3.927   2.588   5.742 -0.3829 -0.1272  0.2259
 1317WAT     H2 4354   3.891   2.491   5.633 -1.1617 -0.1572  0.5048
 1318WAT      O 4355   5.170   6.872   0.156 -0.3126 -0.3297  0.3888
 1318WAT     H1 4356   5.222   6.817   0.214  1.0217  0.2220 -0.2627
 1318WAT     H2 4357   5.111   6.812   0.112  0.1368 -1.0381  0.7432
 1319WAT      O 4358   0.608   1.449   1.821 -0.5075  0.2582  0.2569
 1319WAT     H1 4359   0.681   1.413   1.872 -1.1400 -1.2562  0.1721
 1319WAT     H2 4360   0.624   1.417   1.732 -1.1749  0.0568  0.2048
 1320WAT      O 4361   7.543   2.071   0.660 -0.2573  0.1065  0.0841
 1320WAT     H1 4362   7.627   2.103   0.693 -1.0403  0.6901  1.5706
 1320WAT     H2 4363   7.567   2.016   0.586  1.4323  0.3733  0.3844
 1321WAT      O 4364   4.978   3.454   1.643 -0.1135  0.4250 -0.2688
 1321WAT     H1 4365   4.885   3.474   1.641 -0.3563 -0.3970  1.2098
 1321WAT     H2 4366   4.982   3.358   1.642  0.6299  0.4184  1.1892
 1322WAT      O 4367   0.631   0.289   1.036  0.3246  0.3913 -0.3806
 1322WAT     H1 4368   0.538   0.272   1.047  0.7731 -0.9565  2.0367
 1322WAT     H2 4369   0.646   0.372   1.082  0.6848 -0.6766  1.5229
 1323WAT      O 4370   1.879   6.843   0.586 -0.4489  0.2389 -0.0810
 1323WAT     H1 4371   1.786   6.822   0.598 -0.8996  2.1292 -0.0245
 1323WAT     H2 4372   1.902   6.897   0.662  0.2599  1.1017 -0.8859
 1324WAT      O 4373   0.580   5.118   0.206  0.1008 -0.3062 -0.9811
 1324WAT     H1 4374   0.503   5.142   0.155 -0.6723  0.7643  0.5782
 1324WAT     H2 4375   0.611   5.202   0.242  0.2610 -1.0577  0.7172
 1325WAT      O 4376   1.851   4.855   0.990 -0.1109  0.2434  0.1440
 1325WAT     H1 4377   1.765   4.823   0.966 -0.6793  1.4244  0.4850
 1325WAT     H2 4378   1.839   4.891   1.078  0.3632  1.6764 -0.3381
 1326WAT      O 4379   1.015   2.493   0.083 -0.3701  0.3968 -0.5047
 1326WAT     H1 4380   1.075   2.427   0.050  0.4752  0.5443  0.7123
 1326WAT     H2 4381   0.967   2.450   0.153 -1.2596  0.4746 -1.0429
 1327WAT      O 4382   4.703   1.909   3.457  0.3495  0.7581  1.1979
 1327WAT     H1 4383   4.732   1.951   3.376 -0.0152  1.7448  1.5546
 1327WAT     H2 4384   4.663   1.980   3.507 -1.7999 -0.3144  1.1399
 1328WAT      O 4385   5.802   0.526   5.692 -0.1396  0.5815  0.4013
 1328WAT     H1 4386   5.822   0.434   5.671 -0.5933  0.8657 -1.4229
 1328WAT     H2 4387   5.724   0.520   5.748  0.4425 -0.1690  1.1738
 1329WAT      O 4388   4.572   4.827   2.162  0.1245 -0.4650  0.0939
 1329WAT     H1 4389   4.582   4.750   2.219  0.0916  0.3157  1.1690
 1329WAT     H2 4390   4.532   4.893   2.218 -1.3535 -0.1543 -1.2478
 1330WAT      O 4391   4.863   6.932   2.950  0.2530  0.6494  0.1303
 1330WAT     H1 4392   4.811   6.853   2.966  1.9977 -0.5568  0.0744
 1330WAT     H2 4393   4.858   6.947   2.856 -1.1036  1.3690  0.2969
 1331WAT      O 4394   4.957   1.437   5.047  0.1154 -0.3537  0.3657
 1331WAT     H1 4395   4.949   1.437   4.951 -1.2481 -0.3630  0.4509
 1331WAT     H2 4396   4.900   1.509   5.075  0.4266 -0.4152  1.1740
 1332WAT      O 4397   1.572   2.864   4.647 -0.1771  0.2878  1.1027
 1332WAT     H1 4398   1.487   2.901   4.623 -0.7718  0.2205  2.9635
 1332WAT     H2 4399   1.554   2.809   4.723  1.4019 -0.4414  0.9853
 1333WAT      O 4400   1.455   1.191   3.768  0.3026  0.1047 -0.1309
 1333WAT     H1 4401   1.385   1.135   3.802  0.8340 -0.2442  0.4220
 1333WAT     H2 4402   1.419   1.280   3.771 -0.0511 -0.0488  0.3377
 1334WAT      O 4403   0.416   3.183   4.058  0.6915  0.2815  0.8439
 1334WAT     H1 4404   0.398   3.276   4.040 -0.2664  0.4886  2.6621
 1334WAT     H2 4405   0.351   3.136   4.006  0.7233  0.6593  0.4545
 1335WAT      O 4406   1.799   1.130   1.757  0.1843  0.4639 -0.6304
 1335WAT     H1 4407   1.810   1.218   1.792  0.3954  0.9519 -1.8883
 1335WAT     H2 4408   1.704   1.120   1.748  0.0307 -0.1692  1.2663
 1336WAT      O 4409   0.780   1.086   3.343 -0.6226 -0.1992  0.0035
 1336WAT     H1 4410   0.724   1.142   3.398  1.7043 -0.4181  2.8583
 1336WAT     H2 4411   0.855   1.142   3.322 -0.6930 -0.6741 -1.5977
 1337WAT      O 4412   1.996   6.304   3.986 -0.0228 -0.1078 -0.2915
 1337WAT     H1 4413   1.946   6.246   4.044  0.8606 -0.9485 -0.3383
 1337WAT     H2 4414   1.951   6.388   3.991 -1.6734 -0.9238 -0.6249
 1338WAT      O 4415   4.498   5.678   1.557  0.5023 -0.4838 -0.5802
 1338WAT     H1 4416   4.519   5.726   1.637  3.7416 -1.2382 -0.8239
 1338WAT     H2 4417   4.412   5.640   1.574  1.8731 -2.3611  3.4741
 1339WAT      O 4418   3.331   0.147   5.100 -0.0666  0.5885 -0.0314
 1339WAT     H1 4419   3.338   0.231   5.055  0.8307  0.7236  0.3396
 1339WAT     H2 4420   3.289   0.167   5.183 -1.1499  0.4379 -0.5315
 1340WAT      O 4421   4.382   4.739   0.502  0.1171 -0.4546  0.0911
 1340WAT     H1 4422   4.376   4.815   0.560  0.0780  0.4725 -1.0952
 1340WAT     H2 4423   4.368   4.664   0.560  0.9956  0.3758  1.4366
 1341WAT      O 4424   3.171   0.742   1.336 -0.2020  0.3814 -0.3505
 1341WAT     H1 4425   3.128   0.702   1.411 -0.3786  1.2229  0.0176
 1341WAT     H2 4426   3.207   0.669   1.286  0.6835 -0.1689  1.0192
 1342WAT      O 4427   0.631   0.897   0.698  0.2558  0.6175  0.4217
 1342WAT     H1 4428   0.683   0.834   0.749  1.1600  3.0711  2.8476
 1342WAT     H2 4429   0.692   0.930   0.632 -0.6891 -2.0054 -1.9689
 1343WAT      O 4430   1.410   0.417   4.017  0.7221  0.0356  0.1290
 1343WAT     H1 4431   1.418   0.475   3.942  0.8377  0.0546  0.1554
 1343WAT     H2 4432   1.342   0.355   3.993 -0.9480  1.4819  0.9271
 1344WAT      O 4433   5.505   6.750   4.557  0.3676  0.1576  0.0634
 1344WAT     H1 4434   5.440   6.681   4.542 -0.0927  0.7857 -1.0431
 1344WAT     H2 4435   5.452   6.828   4.573  0.8003  0.8474 -1.6428
 1345WAT      O 4436   3.265   7.024   0.717  0.0390 -0.0512 -0.2327
 1345WAT     H1 4437   3.231   7.113   0.711  0.9732  0.3593  0.3725
 1345WAT     H2 4438   3.355   7.034   0.749  1.2353 -0.9917 -2.9264
 1346WAT      O 4439   2.828   5.826   1.779  0.0229 -0.2012  0.2173
 1346WAT     H1 4440   2.757   5.761   1.780  0.0150 -0.1920  0.6541
 1346WAT     H2 4441   2.866   5.821   1.867  0.1517  0.2460  0.1892
 1347WAT      O 4442   5.362   1.952   5.904 -0.2596 -0.5550 -0.2027
 1347WAT     H1 4443   5.361   1.874   5.959  0.7708 -0.7932 -0.4954
 1347WAT     H2 4444   5.400   2.020   5.961  2.0687 -1.1165 -0.9506
 1348WAT      O 4445   6.373   5.895   5.076 -0.2110  0.1393  0.4874
 1348WAT     H1 4446   6.311   5.875   5.146  0.9289 -2.0481  0.9732
 1348WAT     H2 4447   6.447   5.936   5.122 -0.2126  0.3915  0.2677
 1349WAT      O 4448   0.347   4.855   5.160 -0.2530 -0.1677 -0.4662
 1349WAT     H1 4449   0.265   4.846   5.111 -0.5902  1.3060 -0.2340
 1349WAT     H2 4450   0.386   4.936   5.127 -0.3103  0.6862  1.3895
 1350WAT      O 4451   2.904   0.486   2.315  0.3630  0.1158 -0.0762
 1350WAT     H1 4452   2.817   0.525   2.310  0.6348  0.7339 -0.0347
 1350WAT     H2 4453   2.903   0.433   2.395  0.3890  1.0280  0.5434
 1351WAT      O 4454   2.858   6.670   4.726 -0.2631 -1.0864 -0.0034
 1351WAT     H1 4455   2.793   6.643   4.791 -0.4469 -1.8311 -0.4904
 1351WAT     H2 4456   2.846   6.765   4.720 -1.7669 -1.2724 -0.5542
 1352WAT      O 4457   2.723   3.910   0.542  0.6464  0.7359 -0.0766
 1352WAT     H1 4458   2.810   3.942   0.566  1.2710 -1.6777  1.2972
 1352WAT     H2 4459   2.683   3.885   0.626  0.1126 -1.5427 -0.9378
 1353WAT      O 4460   0.458   3.941   2.985  0.0598  0.7862  0.1300
 1353WAT     H1 4461   0.499   3.866   3.029  1.4298 -0.1531 -2.4907
 1353WAT     H2 4462   0.531   3.996   2.960 -0.7390  1.6853 -0.2611
 1354WAT      O 4463   2.462   4.932   5.359  0.2831  0.9519  0.5448
 1354WAT     H1 4464   2.449   4.850   5.312 -1.3220  0.1826  2.2001
 1354WAT     H2 4465   2.513   4.987   5.299 -0.4390 -0.4765 -1.4656
 1355WAT      O 4466   3.728   2.774   4.469 -0.5039  0.6374  0.0835
 1355WAT     H1 4467   3.814   2.735   4.489 -0.2946  1.1357  0.1564
 1355WAT     H2 4468   3.680   2.770   4.552 -0.4359  0.6578  0.1236
 1356WAT      O 4469   7.463   0.341   3.443 -0.1074  0.4064 -0.0542
 1356WAT     H1 4470   7.530   0.278   3.469 -0.4055  0.4103  0.7496
 1356WAT     H2 4471   7.404   0.346   3.519 -2.1377 -1.0621 -1.4520
 1357WAT      O 4472   2.611   6.649   3.298 -0.3268  0.6140 -0.3659
 1357WAT     H1 4473   2.688   6.683   3.253 -0.7411  1.3169 -0.5453
 1357WAT     H2 4474   2.537   6.671   3.241 -0.6675 -0.0532 -0.1959
 1358WAT      O 4475   1.876   4.514   3.591  0.0567  0.3456  0.4487
 1358WAT     H1 4476   1.811   4.561   3.539  0.3402 -0.1060 -0.3341
 1358WAT     H2 4477   1.860   4.542   3.681 -1.0827  0.3958  0.2427
 1359WAT      O 4478   5.500   1.505   0.645 -0.9454 -0.5213 -0.2859
 1359WAT     H1 4479   5.410   1.473   0.636 -1.4363  0.3416  1.2808
 1359WAT     H2 4480   5.555   1.429   0.621 -2.0683 -1.2075 -0.7629
 1360WAT      O 4481   6.850   2.937   3.198  0.1221 -0.0005 -0.1744
 1360WAT     H1 4482   6.937   2.917   3.164  0.0905 -0.6893  0.1288
 1360WAT     H2 4483   6.793   2.932   3.122  0.5521  2.0466 -0.6969
 1361WAT      O 4484   4.726   5.923   4.503 -0.1173 -0.2154  0.0425
 1361WAT     H1 4485   4.761   6.011   4.489  0.4084 -0.3094  0.7254
 1361WAT     H2 4486   4.679   5.929   4.586  1.4690 -1.0220  1.0312
 1362WAT      O 4487   4.580   5.828   3.902 -0.1306 -0.5737 -0.0245
 1362WAT     H1 4488   4.674   5.837   3.891 -0.0442 -1.4640 -0.0268
 1362WAT     H2 4489   4.554   5.762   3.838 -0.7387 -0.4251  0.0620
 1363WAT      O 4490   1.865   1.220   4.869  0.1352  0.0326 -0.2135
 1363WAT     H1 4491   1.906   1.180   4.946 -0.4048 -2.3957 -1.0752
 1363WAT     H2 4492   1.772   1.207   4.882  0.0657 -1.4841 -1.7146
 1364WAT      O 4493   0.862   1.373   5.283  0.3729  0.0529  0.1905
 1364WAT     H1 4494   0.866   1.404   5.373  0.2231 -0.0982  0.2508
 1364WAT     H2 4495   0.772   1.341   5.273 -0.1768  1.6992 -0.5623
 1365WAT      O 4496   3.891   4.858   5.495 -0.2664  0.0605  0.6501
 1365WAT     H1 4497   3.919   4.949   5.504 -0.3284  0.1393  0.1109
 1365WAT     H2 4498   3.848   4.837   5.578 -0.4159  0.5786  0.7053
 1366WAT      O 4499   4.261   4.129   3.258 -0.0152  0.5922  0.0139
 1366WAT     H1 4500   4.203   4.070   3.305  0.8275 -0.8867 -0.7035
 1366WAT     H2 4501   4.235   4.120   3.166  0.1115  1.3746 -0.1060
 1367WAT      O 4502   0.918   0.786   6.140 -0.9226 -0.0680  0.6225
 1367WAT     H1 4503   0.829   0.803   6.172 -0.1052  2.0628  2.0259
 1367WAT     H2 4504   0.936   0.858   6.080  0.1236  0.0203  1.0148
 1368WAT      O 4505   1.160   3.890   1.559 -0.3354  0.2437  0.4007
 1368WAT     H1 4506   1.090   3.848   1.510  0.1211 -0.0364 -0.0264
 1368WAT     H2 4507   1.218   3.819   1.584  1.3024  0.7285 -1.7140
 1369WAT      O 4508   0.401   4.682   4.112  0.2673  0.4579  0.3435
 1369WAT     H1 4509   0.365   4.594   4.123  1.9632 -0.4186 -0.6887
 1369WAT     H2 4510   0.398   4.721   4.199  0.9919 -1.2385  1.1621
 1370WAT      O 4511   6.344   6.205   2.500 -0.5276  0.1388  0.0629
 1370WAT     H1 4512   6.361   6.221   2.407  0.4926  2.6668  0.5883
 1370WAT     H2 4513   6.261   6.251   2.516 -0.8113 -0.4741  0.3516
 1371WAT      O 4514   5.122   6.577   4.166  0.2257  0.1737  0.5599
 1371WAT     H1 4515   5.197   6.620   4.124  0.2173  1.7095  2.0015
 1371WAT     H2 4516   5.057   6.569   4.096  1.2257  0.0725 -0.3803
 1372WAT      O 4517   5.031   3.679   3.189  0.1914 -0.0876 -0.4012
 1372WAT     H1 4518   5.123   3.661   3.206  0.4831  0.7113 -1.0385
 1372WAT     H2 4519   5.031   3.715   3.100 -0.8746 -1.1646 -0.8682
 1373WAT      O 4520   6.648   5.588   1.512 -0.0773  0.0924  0.3663
 1373WAT     H1 4521   6.712   5.531   1.554 -0.1727  0.2619  0.7446
 1373WAT     H2 4522   6.568   5.578   1.564 -0.3425 -0.0783 -0.0718
 1374WAT      O 4523   5.984   0.821   4.027  0.1543  0.7155  0.6321
 1374WAT     H1 4524   5.922   0.763   4.070 -0.1304 -0.1513 -0.8641
 1374WAT     H2 4525   6.070   0.781   4.043 -0.1079 -0.6535 -1.0866
 1375WAT      O 4526   3.147   3.042   0.418  0.2937 -0.2149  0.0572
 1375WAT     H1 4527   3.056   3.067   0.401  0.6162  1.3464  0.4704
 1375WAT     H2 4528   3.150   3.028   0.512  1.2160  3.3977  0.7332
 1376WAT      O 4529   0.769   1.650   5.211 -0.3727 -0.2422  0.1778
 1376WAT     H1 4530   0.678   1.640   5.239 -0.4184 -0.3073  0.0107
 1376WAT     H2 4531   0.816   1.578   5.253 -0.7474 -1.3693 -1.2430
 1377WAT      O 4532   3.264   3.273   0.618  0.2402  0.2310  0.6081
 1377WAT     H1 4533   3.286   3.210   0.687 -1.5639  0.9802  1.9621
 1377WAT     H2 4534   3.262   3.358   0.663 -2.1494  0.5865 -0.0526
 1378WAT      O 4535   1.886   6.966   3.479  0.3935 -0.3084  0.2820
 1378WAT     H1 4536   1.916   7.056   3.489  2.9124 -0.7429 -2.0856
 1378WAT     H2 4537   1.937   6.916   3.541 -1.8017 -0.1143  2.4172
 1379WAT      O 4538   1.986   4.787   5.721  0.6576  0.1250 -0.7460
 1379WAT     H1 4539   2.026   4.748   5.799  0.8154  2.9935  0.7711
 1379WAT     H2 4540   2.056   4.842   5.684 -0.2381  0.9246 -1.2869
 1380WAT      O 4541   4.864   3.227   3.482 -0.5751 -0.2960 -0.3111
 1380WAT     H1 4542   4.957   3.248   3.482 -0.5496 -0.2643  1.3722
 1380WAT     H2 4543   4.855   3.156   3.545 -1.9262  1.1060  1.2046
 1381WAT      O 4544   7.119   2.292   0.049 -0.3880 -0.5773  0.3819
 1381WAT     H1 4545   7.210   2.297   0.021 -0.3025  2.0773  0.8905
 1381WAT     H2 4546   7.123   2.294   0.145 -0.9789  1.4177  0.4085
 1382WAT      O 4547   2.456   3.844   0.007  0.0754  0.2937  0.9618
 1382WAT     H1 4548   2.408   3.908   0.060 -1.9498 -0.1278 -0.2228
 1382WAT     H2 4549   2.397   3.768   0.004  0.6023 -0.0825 -0.9579
 1383WAT      O 4550   6.297   2.084   1.966  0.3196 -0.1706  0.1555
 1383WAT     H1 4551   6.284   2.170   2.007 -0.3557  0.5819 -1.5218
 1383WAT     H2 4552   6.371   2.097   1.906  1.6290 -1.3840  1.4291
 1384WAT      O 4553   6.521   1.015   3.771 -0.8110 -0.0541 -0.7671
 1384WAT     H1 4554   6.510   0.950   3.840  1.2794  0.7672  0.4317
 1384WAT     H2 4555   6.438   1.063   3.771 -0.8598 -0.0439  1.2372
 1385WAT      O 4556   5.754   1.995   0.081  0.2009 -0.8398 -0.3259
 1385WAT     H1 4557   5.729   1.957   0.165  1.3916 -2.6983 -0.7454
 1385WAT     H2 4558   5.718   1.936   0.016  0.4853 -0.1966 -1.0869
 1386WAT      O 4559   4.688   0.426   5.331 -0.0955  0.1043 -0.1522
 1386WAT     H1 4560   4.690   0.499   5.393 -1.8701  0.1494 -0.0906
 1386WAT     H2 4561   4.652   0.353   5.381 -0.2504 -0.2401 -0.7575
 1387WAT      O 4562   4.102   2.340   2.800  0.2469  0.5075 -0.0444
 1387WAT     H1 4563   4.049   2.362   2.724  0.6627 -0.8708 -0.7572
 1387WAT     H2 4564   4.040   2.300   2.862  0.1891  0.2566 -0.2658
 1388WAT      O 4565   3.111   4.369   6.224 -0.0972 -0.4069  0.3994
 1388WAT     H1 4566   3.196   4.339   6.191 -0.9870 -1.0752 -1.4098
 1388WAT     H2 4567   3.077   4.427   6.156 -0.9428  0.1389  1.2564
 1389WAT      O 4568   2.467   3.369   5.100 -0.1255  0.5173  0.0329
 1389WAT     H1 4569   2.461   3.360   5.195  0.2129 -1.6157 -0.0933
 1389WAT     H2 4570   2.559   3.393   5.084  0.1539 -0.3892  0.2021
 1390WAT      O 4571   0.516   0.372   2.657 -0.5972  0.3049 -1.0044
 1390WAT     H1 4572   0.464   0.452   2.645 -2.3419 -0.8239 -1.2719
 1390WAT     H2 4573   0.525   0.335   2.569 -0.1134  0.0142 -0.8361
 1391WAT      O 4574   2.835   5.088   2.924  0.2910 -0.0798 -0.1352
 1391WAT     H1 4575   2.858   5.154   2.989 -0.8465 -0.4159  0.6436
 1391WAT     H2 4576   2.891   5.013   2.946  0.9390  0.2909 -0.4660
 1392WAT      O 4577   7.607   4.088   1.099 -0.3302 -0.6312 -0.5117
 1392WAT     H1 4578   7.519   4.073   1.133  0.0154 -0.4328  0.5124
 1392WAT     H2 4579   7.635   4.170   1.139  0.6740 -1.1752 -0.0602
 1393WAT      O 4580   2.410   7.072   0.230 -0.5990 -0.7292  0.2972
 1393WAT     H1 4581   2.380   7.129   0.300 -1.4064 -2.9003  1.8356
 1393WAT     H2 4582   2.475   7.015   0.272 -1.1648 -2.1414 -0.6577
 1394WAT      O 4583   0.762   4.513   5.447 -0.0160  0.2168  0.4805
 1394WAT     H1 4584   0.710   4.456   5.503  0.3269  0.3125  0.9109
 1394WAT     H2 4585   0.703   4.584   5.423 -1.0787 -1.3096 -1.7296
 1395WAT      O 4586   3.969   1.233   4.109 -0.7094 -0.6141 -0.5296
 1395WAT     H1 4587   4.010   1.147   4.115 -0.1708 -0.3387 -0.1652
 1395WAT     H2 4588   4.000   1.280   4.187 -1.1554 -0.1603 -0.6197
 1396WAT      O 4589   3.777   4.900   1.709 -0.0186  0.4043  0.1691
 1396WAT     H1 4590   3.846   4.881   1.646 -0.2872  0.8628 -0.2666
 1396WAT     H2 4591   3.816   4.964   1.769  0.5645 -0.7594  1.0670
 1397WAT      O 4592   4.789   1.590   4.036 -0.1055  0.4399  0.0458
 1397WAT     H1 4593   4.736   1.582   3.957  1.2358 -0.7939 -0.7982
 1397WAT     H2 4594   4.842   1.510   4.037  0.7360  0.9703  1.5772
 1398WAT      O 4595   4.553   3.094   5.208 -0.4272 -0.4192  0.0980
 1398WAT     H1 4596   4.636   3.047   5.199  0.4148  0.4694  2.4946
 1398WAT     H2 4597   4.578   3.186   5.216 -1.4999 -0.2593  2.1363
 1399WAT      O 4598   2.785   6.120   0.637 -0.2912  0.0118 -0.7372
 1399WAT     H1 4599   2.730   6.053   0.678 -3.5211  2.4927 -0.5978
 1399WAT     H2 4600   2.834   6.158   0.710  0.5087 -1.1971 -0.6127
 1400WAT      O 4601   3.573   6.414   5.898  0.2515  0.0909 -0.1258
 1400WAT     H1 4602   3.571   6.509   5.913 -0.5114  0.0738 -0.0940
 1400WAT     H2 4603   3.570   6.376   5.986 -0.5777  0.0293 -0.1744
 1401WAT      O 4604   7.495   2.931   4.679 -0.0852 -0.3515 -0.0541
 1401WAT     H1 4605   7.415   2.968   4.714 -0.6911 -1.5228 -0.1692
 1401WAT     H2 4606   7.523   2.866   4.743 -0.1160 -1.0919 -0.7663
 1402WAT      O 4607   5.989   6.141   5.116 -0.3343 -0.0558 -0.1187
 1402WAT     H1 4608   5.953   6.192   5.189 -0.3125  0.4287 -0.4441
 1402WAT     H2 4609   6.043   6.075   5.158  0.0380  0.5020  0.2958
 1403WAT      O 4610   2.918   0.363   1.729  0.3905  0.0559  0.4739
 1403WAT     H1 4611   2.940   0.270   1.718 -1.7058 -0.4678  0.2347
 1403WAT     H2 4612   2.947   0.384   1.818  2.7711 -0.1989 -0.1625
 1404WAT      O 4613   3.664   2.458   2.222  0.0936  0.1931 -0.1887
 1404WAT     H1 4614   3.687   2.404   2.298  1.5095 -1.2880 -1.5769
 1404WAT     H2 4615   3.571   2.478   2.233  0.1449 -0.4222  1.6511
 1405WAT      O 4616   4.773   2.520   5.436  0.1852 -0.1929  0.2069
 1405WAT     H1 4617   4.707   2.584   5.464  0.3067  0.2765 -0.5214
 1405WAT     H2 4618   4.762   2.516   5.341  2.3926  1.2734 -0.1808
 1406WAT      O 4619   0.740   1.962   2.481  0.1237 -0.4913  0.2807
 1406WAT     H1 4620   0.789   1.882   2.501 -0.6579 -0.8747  0.7090
 1406WAT     H2 4621   0.654   1.948   2.520  0.2448  0.9277  1.1336
 1407WAT      O 4622   4.867   4.954   6.036  0.3341  0.2660 -0.6766
 1407WAT     H1 4623   4.950   4.956   5.988  1.6617 -0.8546  1.4267
 1407WAT     H2 4624   4.870   5.031   6.093 -0.4477  0.6480 -1.1335
 1408WAT      O 4625   3.104   2.090   1.815 -0.2457 -0.0173  0.2447
 1408WAT     H1 4626   3.137   2.062   1.730 -0.8723 -1.2326  0.3833
 1408WAT     H2 4627   3.111   2.012   1.871 -0.0532  0.6933  1.2453
 1409WAT      O 4628   0.591   3.972   2.240  0.2918 -0.6849 -0.3660
 1409WAT     H1 4629   0.619   4.025   2.315  0.6486 -1.5416  0.1253
 1409WAT     H2 4630   0.637   4.010   2.165 -0.6142  0.6228 -0.2854
 1410WAT      O 4631   0.851   5.996   2.637 -0.2921 -0.3230  0.2912
 1410WAT     H1 4632   0.828   5.974   2.727 -4.3633  3.5332  0.5391
 1410WAT     H2 4633   0.932   6.047   2.645 -0.5349 -0.1334  1.7781
 1411WAT      O 4634   2.514   4.820   4.572  0.5751 -0.4551 -0.6003
 1411WAT     H1 4635   2.526   4.786   4.661  1.2676  1.7462  0.2222
 1411WAT     H2 4636   2.601   4.813   4.532  0.9834  1.1403 -0.0745
 1412WAT      O 4637   6.314   5.815   1.630  0.2850  0.6380  0.9201
 1412WAT     H1 4638   6.268   5.794   1.711  0.2879  0.4806  0.8807
 1412WAT     H2 4639   6.327   5.731   1.586  0.9079  0.6437  1.0861
 1413WAT      O 4640   5.421   2.407   4.804  0.4603  0.4475  0.5500
 1413WAT     H1 4641   5.480   2.475   4.836  1.3639 -0.6354  1.2342
 1413WAT     H2 4642   5.404   2.351   4.880 -1.2420  0.5654  0.3062
 1414WAT      O 4643   6.268   7.024   4.125  0.1337  0.4365  0.2501
 1414WAT     H1 4644   6.239   6.948   4.175 -2.6743  0.9763 -0.4050
 1414WAT     H2 4645   6.292   7.089   4.191 -0.8757  0.1872  0.8747
 1415WAT      O 4646   3.650   0.510   4.223 -0.0564 -0.1830 -0.0407
 1415WAT     H1 4647   3.601   0.550   4.152  0.5436  1.4139  0.4158
 1415WAT     H2 4648   3.583   0.472   4.280 -0.5688 -0.8797 -1.0640
 1416WAT      O 4649   4.711   6.377   2.639  0.3067  0.3996 -0.2208
 1416WAT     H1 4650   4.790   6.342   2.597 -1.0058 -0.4730 -2.1418
 1416WAT     H2 4651   4.640   6.352   2.580 -1.5709  0.1834  1.9781
 1417WAT      O 4652   3.166   3.225   5.000 -0.0518  0.1015 -0.2326
 1417WAT     H1 4653   3.113   3.303   4.980  0.8840  0.7999 -0.0573
 1417WAT     H2 4654   3.231   3.256   5.063  0.1293 -0.9100  0.0959
 1418WAT      O 4655   7.537   1.392   2.995  0.4339 -0.2049 -0.1960
 1418WAT     H1 4656   7.583   1.313   3.025 -0.4368 -1.4791 -1.9905
 1418WAT     H2 4657   7.600   1.463   3.007  1.0480 -1.0439  2.0082
 1419WAT      O 4658   0.053   0.526   2.719 -0.1046 -0.0922  0.6328
 1419WAT     H1 4659   0.096   0.488   2.795  0.4530  0.9294  0.8516
 1419WAT     H2 4660   0.050   0.620   2.738  0.9086  0.3038 -1.0115
 1420WAT      O 4661   1.068   4.808   0.366  0.0988  0.0074 -0.1766
 1420WAT     H1 4662   1.121   4.823   0.445  0.3243  0.7985 -0.4619
 1420WAT     H2 4663   1.032   4.720   0.377  1.4233 -0.5281  0.0613
 1421WAT      O 4664   6.287   5.441   1.979  0.3623 -0.0771  0.7649
 1421WAT     H1 4665   6.208   5.415   2.027 -0.2572  1.3592  0.5645
 1421WAT     H2 4666   6.273   5.408   1.890  0.5469 -0.8660  1.0177
 1422WAT      O 4667   3.952   1.286   4.516  0.0114  0.3384  0.1262
 1422WAT     H1 4668   3.927   1.208   4.467 -2.5316  0.7396  0.6421
 1422WAT     H2 4669   4.028   1.258   4.568  0.2211 -1.2585 -0.9663
 1423WAT      O 4670   3.203   2.546   5.834  0.1676 -0.1001 -0.1183
 1423WAT     H1 4671   3.116   2.576   5.862  1.0785  0.9841  1.7884
 1423WAT     H2 4672   3.197   2.451   5.838 -1.1171 -0.0634 -0.6433
 1424WAT      O 4673   3.999   2.512   5.029 -0.3110  0.0533  0.2306
 1424WAT     H1 4674   3.995   2.585   4.968  1.7840 -0.7503 -1.0101
 1424WAT     H2 4675   3.913   2.470   5.022 -1.8167  2.7116  1.5053
 1425WAT      O 4676   0.071   3.941   3.571  0.5846  0.3530 -0.0584
 1425WAT     H1 4677   0.085   3.870   3.634 -0.3835 -2.3705 -2.7136
 1425WAT     H2 4678   0.158   3.959   3.536  0.7913  0.2731  0.3998
 1426WAT      O 4679   5.024   6.709   3.750  0.1301 -0.1144  0.0742
 1426WAT     H1 4680   5.071   6.780   3.793  1.3993  0.0831 -1.5435
 1426WAT     H2 4681   5.067   6.700   3.665 -0.5595 -2.2589 -0.0958
 1427WAT      O 4682   4.967   6.466   3.373 -1.1884 -0.3978  0.3813
 1427WAT     H1 4683   4.946   6.558   3.355 -2.3317 -0.9073 -1.0874
 1427WAT     H2 4684   4.939   6.419   3.294  1.3922 -1.7663  0.1905
 1428WAT      O 4685   2.840   1.481   3.916  1.0180 -0.6571 -0.1908
 1428WAT     H1 4686   2.914   1.453   3.862  0.4237 -0.9724 -0.8509
 1428WAT     H2 4687   2.799   1.399   3.945 -0.1133 -0.4951 -1.2702
 1429WAT      O 4688   2.863   3.725   5.781 -0.1205  0.1596  0.6377
 1429WAT     H1 4689   2.931   3.659   5.776  0.5798  0.6830  2.4881
 1429WAT     H2 4690   2.880   3.782   5.706  1.1297 -0.0441  0.7439
 1430WAT      O 4691   5.053   4.152   2.114  0.1297  0.1691  0.0185
 1430WAT     H1 4692   5.069   4.087   2.182  1.4786  0.4718  0.0128
 1430WAT     H2 4693   4.963   4.134   2.085  0.7359 -2.2658 -0.5986
 1431WAT      O 4694   5.307   3.003   1.465  0.0167 -0.0340  0.1046
 1431WAT     H1 4695   5.347   3.088   1.447 -2.4892  0.9559 -1.3266
 1431WAT     H2 4696   5.376   2.940   1.447  1.4676  1.6067 -0.4211
 1432WAT      O 4697   2.139   5.974   1.560  0.0202 -0.0071  0.3984
 1432WAT     H1 4698   2.114   6.065   1.540 -2.1237 -1.1273 -2.7111
 1432WAT     H2 4699   2.065   5.940   1.611 -0.1687 -0.5359 -0.2090
 1433WAT      O 4700   7.401   0.202   5.417 -0.2394 -0.8651 -0.4643
 1433WAT     H1 4701   7.412   0.282   5.469 -0.3326 -0.4211 -1.1156
 1433WAT     H2 4702   7.383   0.134   5.481  2.0875 -0.8293  0.3364
 1434WAT      O 4703   4.342   3.116   1.966 -0.3707  0.0442 -0.5960
 1434WAT     H1 4704   4.268   3.078   2.015  0.0233 -0.9257 -0.7267
 1434WAT     H2 4705   4.311   3.202   1.939 -1.3110 -0.1897 -0.3110
 1435WAT      O 4706   2.605   4.829   3.047  0.6232 -0.0503  0.0146
 1435WAT     H1 4707   2.671   4.898   3.039  0.6864 -0.3498 -3.4268
 1435WAT     H2 4708   2.648   4.762   3.101  1.5404  1.4430  1.2183
 1436WAT      O 4709   3.409   3.165   5.417  0.0521  0.4444  0.0545
 1436WAT     H1 4710   3.340   3.208   5.468 -1.4166 -0.7939 -0.8248
 1436WAT     H2 4711   3.483   3.158   5.478 -0.9381  0.8936  1.3429
 1437WAT      O 4712   6.501   7.079   3.257  0.5808 -0.0603 -1.0029
 1437WAT     H1 4713   6.570   7.110   3.315 -0.5814 -1.3542  1.2249
 1437WAT     H2 4714   6.506   6.984   3.262 -2.5082 -0.2674  0.9057
 1438WAT      O 4715   0.783   0.196   3.214 -0.7482 -0.0575  0.0142
 1438WAT     H1 4716   0.770   0.249   3.134 -1.3354  0.3202  0.3511
 1438WAT     H2 4717   0.869   0.157   3.202 -1.2054 -0.7612 -1.2446
 1439WAT      O 4718   2.228   6.855   4.302  0.3648  0.9619 -0.2842
 1439WAT     H1 4719   2.195   6.783   4.356  0.9816  1.1012  0.3015
 1439WAT     H2 4720   2.185   6.933   4.337  0.0468  0.9392 -0.6183
 1440WAT      O 4721   4.480   6.247   4.821  0.4511 -0.2768  0.0249
 1440WAT     H1 4722   4.411   6.313   4.829  0.6517  0.1064 -1.1835
 1440WAT     H2 4723   4.553   6.282   4.872  0.4585  0.3129 -0.3813
 1441WAT      O 4724   0.866   0.937   5.641  0.7135 -0.2584 -0.3146
 1441WAT     H1 4725   0.874   1.016   5.696  0.4497 -1.5229  1.6408
 1441WAT     H2 4726   0.773   0.913   5.649  0.5344 -0.1739 -1.8224
 1442WAT      O 4727   5.677   4.427   0.016  0.1733 -0.2171 -0.2029
 1442WAT     H1 4728   5.645   4.340  -0.009  1.8187 -0.6753 -0.8964
 1442WAT     H2 4729   5.673   4.428   0.111 -1.7782 -0.2548 -0.2497
 1443WAT      O 4730   3.744   6.965   5.853  0.0809  0.5058 -0.4752
 1443WAT     H1 4731   3.693   7.022   5.795  0.7017  1.3485 -0.2211
 1443WAT     H2 4732   3.699   6.971   5.937  1.0567  1.9795 -0.0047
 1444WAT      O 4733   7.334   0.858   1.335 -0.5310  0.0405 -0.4114
 1444WAT     H1 4734   7.409   0.824   1.288  0.1440  1.1314 -0.1700
 1444WAT     H2 4735   7.334   0.812   1.419  0.4431  0.6925 -0.0364
 1445WAT      O 4736   6.489   1.722   1.717  0.0966  0.1680 -0.3241
 1445WAT     H1 4737   6.493   1.674   1.800 -0.2664  0.7419  0.0309
 1445WAT     H2 4738   6.482   1.814   1.743 -0.5240  0.3098 -0.9853
 1446WAT      O 4739   1.722   1.898   2.125  0.0661 -0.4717  0.4759
 1446WAT     H1 4740   1.780   1.973   2.135  0.4382 -0.6603 -0.1786
 1446WAT     H2 4741   1.739   1.844   2.202 -1.7299  1.0926  2.0708
 1447WAT      O 4742   5.669   6.386   3.118 -0.1820 -0.2298 -0.0677
 1447WAT     H1 4743   5.757   6.357   3.094  0.0713 -0.1805  0.7614
 1447WAT     H2 4744   5.653   6.346   3.203 -0.9972 -0.2915 -0.2415
 1448WAT      O 4745   1.145   1.688   1.304 -0.4892  0.8529 -0.1695
 1448WAT     H1 4746   1.178   1.611   1.351 -0.5777  1.2835  0.6000
 1448WAT     H2 4747   1.224   1.731   1.271 -0.4705  0.0493 -1.2368
 1449WAT      O 4748   4.096   2.014   0.097  0.0065 -0.1775 -0.1338
 1449WAT     H1 4749   4.164   2.007   0.163  1.1182 -1.3223 -1.3692
 1449WAT     H2 4750   4.094   2.108   0.075 -0.6924  0.3184  1.7533
 1450WAT      O 4751   7.188   6.833   2.660 -0.5103 -0.1155  0.6062
 1450WAT     H1 4752   7.097   6.802   2.656 -0.4476 -0.3333  0.8481
 1450WAT     H2 4753   7.216   6.838   2.569 -0.6752 -0.3183  0.5446
 1451WAT      O 4754   0.890   6.906   5.276  0.0037  0.7732  0.0728
 1451WAT     H1 4755   0.986   6.899   5.275 -0.1027 -1.2337 -0.3665
 1451WAT     H2 4756   0.861   6.834   5.332 -1.2497  1.8422  0.8513
 1452WAT      O 4757   3.674   6.145   4.788 -0.0589  0.3002  0.5697
 1452WAT     H1 4758   3.600   6.138   4.848  0.2424  0.2641  0.9415
 1452WAT     H2 4759   3.722   6.222   4.818  1.3733 -1.0162  1.8417
 1453WAT      O 4760   5.419   2.210   5.026 -0.6846  0.3859  0.8156
 1453WAT     H1 4761   5.474   2.140   5.063 -1.0133 -0.5692 -0.4185
 1453WAT     H2 4762   5.378   2.251   5.102  1.0234  0.5266  1.7097
 1454WAT      O 4763   5.615   0.810   0.725  1.0120  0.0311  0.0992
 1454WAT     H1 4764   5.592   0.762   0.805 -1.7539  0.3742 -0.3902
 1454WAT     H2 4765   5.650   0.743   0.666  1.6381 -0.4993  1.0483
 1455WAT      O 4766   5.418   6.852   3.685 -0.1067  0.0685 -0.5405
 1455WAT     H1 4767   5.391   6.851   3.777  1.8987  0.6232  0.1010
 1455WAT     H2 4768   5.342   6.817   3.638 -1.2172 -0.1575  1.2992
 1456WAT      O 4769   6.771   3.954   4.062  0.1187  0.0423 -0.4898
 1456WAT     H1 4770   6.847   4.010   4.079 -0.1517 -0.0542  1.2572
 1456WAT     H2 4771   6.696   4.012   4.077 -0.1546 -0.4478  0.0603
 1457WAT      O 4772   3.687   5.629   2.401  0.0078 -0.1490 -0.6493
 1457WAT     H1 4773   3.781   5.632   2.384 -0.3025  1.3030 -2.4356
 1457WAT     H2 4774   3.654   5.560   2.344  0.1455 -1.8380  1.2042
 1458WAT      O 4775   0.194   1.430   0.749 -0.1231  0.0340  0.5280
 1458WAT     H1 4776   0.141   1.354   0.773  1.1913 -1.1012 -0.0201
 1458WAT     H2 4777   0.283   1.406   0.774  0.2142  1.7438  1.0781
 1459WAT      O 4778   2.798   1.489   4.985 -0.3883 -0.4945 -0.3435
 1459WAT     H1 4779   2.740   1.503   5.059  0.9142  0.0512  0.6231
 1459WAT     H2 4780   2.756   1.534   4.912 -2.0644 -1.6695 -0.1413
 1460WAT      O 4781   2.126   5.826   1.890  0.1136 -0.1581 -0.3642
 1460WAT     H1 4782   2.185   5.765   1.846  1.1894  0.0685  0.7311
 1460WAT     H2 4783   2.052   5.772   1.918  0.6449 -0.7954 -0.1682
 1461WAT      O 4784   5.589   5.316   5.710 -0.0567  0.2767  0.5634
 1461WAT     H1 4785   5.513   5.303   5.654  0.9541 -1.0841 -0.5780
 1461WAT     H2 4786   5.576   5.402   5.749 -1.9492  0.2553  0.0652
 1462WAT      O 4787   4.799   6.608   2.711  0.6461 -0.3864 -0.5493
 1462WAT     H1 4788   4.766   6.521   2.687 -1.6922  0.5566 -1.0145
 1462WAT     H2 4789   4.758   6.626   2.796  0.4116  0.6115 -0.8625
 1463WAT      O 4790   2.630   1.913   0.658 -0.9185 -0.4371 -0.3640
 1463WAT     H1 4791   2.570   1.840   0.677 -0.8129 -0.2786  0.6207
 1463WAT     H2 4792   2.585   1.991   0.690 -1.2453  0.0254 -1.8563
 1464WAT      O 4793   7.512   0.142   2.826 -0.1877  0.1742 -0.0663
 1464WAT     H1 4794   7.577   0.143   2.756  0.2532 -2.2322  0.2221
 1464WAT     H2 4795   7.527   0.059   2.871 -2.2776  0.3923  1.1524
 1465WAT      O 4796   1.042   0.266   5.843 -0.0662 -0.3358 -1.0282
 1465WAT     H1 4797   1.048   0.252   5.938 -0.4016 -0.9862 -1.0970
 1465WAT     H2 4798   1.055   0.360   5.832  1.0866 -0.3962 -0.4285
 1466WAT      O 4799   2.486   2.111   0.808  0.7709 -0.3418  0.4222
 1466WAT     H1 4800   2.574   2.106   0.843  0.5817 -0.0272  0.9583
 1466WAT     H2 4801   2.440   2.172   0.866 -0.0391 -1.1578  0.6757
 1467WAT      O 4802   6.842   4.536   1.307 -1.1799  0.5733  0.0516
 1467WAT     H1 4803   6.850   4.455   1.257 -0.8495 -0.0724  1.1154
 1467WAT     H2 4804   6.793   4.511   1.385 -0.7510  1.3205  0.5663
 1468WAT      O 4805   0.899   6.378   4.023 -0.8104  0.5275  0.5590
 1468WAT     H1 4806   0.804   6.385   4.015 -0.6776 -0.0317 -4.2959
 1468WAT     H2 4807   0.917   6.284   4.011  0.4323  0.7841  0.2883
 1469WAT      O 4808   6.326   5.885   4.628 -0.5090  0.1964  0.1515
 1469WAT     H1 4809   6.275   5.965   4.642  0.9527  1.2158 -0.0132
 1469WAT     H2 4810   6.317   5.836   4.709 -0.9100  0.8402  0.5096
 1470WAT      O 4811   2.377   4.010   5.526  0.6479  0.1169 -0.1328
 1470WAT     H1 4812   2.462   3.970   5.507  0.6480 -0.5086  1.0848
 1470WAT     H2 4813   2.313   3.952   5.485  0.7014 -0.6246  0.8054
 1471WAT      O 4814   6.445   2.802   5.762 -0.1662 -0.5645  0.0854
 1471WAT     H1 4815   6.370   2.767   5.810 -0.8183 -0.3341 -0.7307
 1471WAT     H2 4816   6.459   2.889   5.800  0.8166 -1.2863  1.4269
 1472WAT      O 4817   7.601   0.582   3.301  0.4089 -0.5867  0.2689
 1472WAT     H1 4818   7.567   0.496   3.327  0.4974 -0.7467 -0.1400
 1472WAT     H2 4819   7.669   0.601   3.366  0.3601 -0.8060  0.3861
 1473WAT      O 4820   3.824   1.148   1.140  0.3456  0.1725 -0.0358
 1473WAT     H1 4821   3.805   1.159   1.047 -2.5833  1.9709  0.6606
 1473WAT     H2 4822   3.747   1.104   1.176  1.3170 -0.2681  1.6138
 1474WAT      O 4823   1.590   1.440   1.823  0.2119 -0.0851  0.3580
 1474WAT     H1 4824   1.654   1.465   1.889 -0.4202  0.5265  0.7640
 1474WAT     H2 4825   1.584   1.516   1.765  0.0219 -0.2231  0.1916
 1475WAT      O 4826   0.931   3.448   3.684 -0.7576 -0.0229 -0.1531
 1475WAT     H1 4827   0.930   3.421   3.776  0.3916  0.7340  0.0986
 1475WAT     H2 4828   0.938   3.543   3.686 -1.3008  0.0520 -1.0345
 1476WAT      O 4829   1.954   6.537   4.702 -0.0664  0.5985  0.3640
 1476WAT     H1 4830   1.865   6.570   4.686 -0.5403 -0.9150 -0.2787
 1476WAT     H2 4831   2.007   6.576   4.632 -0.8505 -0.8614 -1.1052
 1477WAT      O 4832   5.006   0.498   5.762  0.4493 -0.2956 -0.2521
 1477WAT     H1 4833   5.003   0.547   5.844 -2.4602  1.1026 -1.0416
 1477WAT     H2 4834   4.994   0.406   5.789 -2.2176  0.2836  0.9292
 1478WAT      O 4835   7.275   2.827   3.726 -0.2107  0.1306 -0.5595
 1478WAT     H1 4836   7.275   2.754   3.788  1.3031  2.6592  2.7426
 1478WAT     H2 4837   7.185   2.861   3.730 -0.5294 -0.6606 -0.9526
 1479WAT      O 4838   1.902   7.171   4.852  0.5195 -0.0970  0.3791
 1479WAT     H1 4839   1.880   7.263   4.835 -0.0749 -0.3432 -0.2574
 1479WAT     H2 4840   1.906   7.164   4.947 -0.9226  0.2690  0.4908
 1480WAT      O 4841   3.702   2.134   0.981  0.6533 -0.1678  0.4651
 1480WAT     H1 4842   3.619   2.177   1.002  0.5402 -0.5490  0.8191
 1480WAT     H2 4843   3.737   2.107   1.067  0.9002 -0.4523  0.2769
 1481WAT      O 4844   4.714   6.923   4.618 -0.0678 -0.1926 -0.3924
 1481WAT     H1 4845   4.685   6.854   4.677 -0.6786  0.2139 -0.2026
 1481WAT     H2 4846   4.760   6.985   4.675  0.0509 -0.1995 -0.4802
 1482WAT      O 4847   3.587   1.730   3.265  0.4426  0.7038 -0.4232
 1482WAT     H1 4848   3.562   1.822   3.279  2.8335  1.4911 -0.7934
 1482WAT     H2 4849   3.653   1.713   3.332 -2.2863 -1.9254  1.8892
 1483WAT      O 4850   5.082   2.920   3.957 -0.4012  0.2641 -0.6485
 1483WAT     H1 4851   5.147   2.907   3.888  1.1623  0.7719  0.6859
 1483WAT     H2 4852   5.056   2.831   3.983 -1.0531  0.0676 -1.8928
 1484WAT      O 4853   2.790   2.797   3.471 -0.1008 -0.0542  0.2240
 1484WAT     H1 4854   2.705   2.830   3.441 -0.4961 -1.0829  0.1850
 1484WAT     H2 4855   2.788   2.810   3.566 -0.0013  0.5784  0.1460
 1485WAT      O 4856   2.397   6.955   2.646  0.3876 -0.0212  0.1043
 1485WAT     H1 4857   2.470   6.928   2.591 -0.4073 -1.0006 -0.5211
 1485WAT     H2 4858   2.321   6.951   2.588 -0.0591  1.7649  0.5264
 1486WAT      O 4859   4.364   1.883   2.488 -0.0862  0.0534  0.2037
 1486WAT     H1 4860   4.319   1.960   2.452  1.2900  0.7512 -0.0677
 1486WAT     H2 4861   4.361   1.895   2.583  0.1306  0.4435  0.1599
 1487WAT      O 4862   7.059   1.318   5.245  0.3088 -0.7121 -0.0573
 1487WAT     H1 4863   6.974   1.343   5.281 -0.2648  0.0700 -1.8040
 1487WAT     H2 4864   7.122   1.339   5.314 -0.7854  0.0035  0.7598
 1488WAT      O 4865   2.563   1.938   5.449  0.4101 -0.5351  0.0908
 1488WAT     H1 4866   2.591   1.887   5.525 -3.0959  1.8603  3.3892
 1488WAT     H2 4867   2.497   1.884   5.406  0.8279 -1.0420  0.0813
 1489WAT      O 4868   1.713   1.144   4.437  0.0318 -0.0038  0.4318
 1489WAT     H1 4869   1.638   1.199   4.416 -0.3408  0.0534  1.8417
 1489WAT     H2 4870   1.697   1.063   4.390 -0.9153  0.0177  0.6999
 1490WAT      O 4871   4.373   1.441   1.938  0.1040 -0.5373  0.3540
 1490WAT     H1 4872   4.281   1.421   1.953 -0.3788  0.8781 -0.5283
 1490WAT     H2 4873   4.373   1.506   1.868  1.8122 -0.9206 -0.0641
 1491WAT      O 4874   7.619   5.026   0.636  0.1660 -0.8976  0.0432
 1491WAT     H1 4875   7.523   5.030   0.640  0.0052 -1.2283 -2.2016
 1491WAT     H2 4876   7.639   5.026   0.542  2.3586 -1.2038  0.4609
 1492WAT      O 4877   3.794   4.677   0.705  0.0660 -0.3100 -0.2537
 1492WAT     H1 4878   3.879   4.650   0.741  1.0480  1.2226 -1.3056
 1492WAT     H2 4879   3.732   4.613   0.739  1.3418 -0.4175  2.0461
 1493WAT      O 4880   2.241   0.906   3.949  0.3036  0.4366  0.2085
 1493WAT     H1 4881   2.150   0.899   3.977  0.2777  1.3104  0.3754
 1493WAT     H2 4882   2.285   0.833   3.992 -0.6419 -1.1011 -1.3148
 1494WAT      O 4883   2.255   2.701   2.144  0.2750 -0.1440 -0.4768
 1494WAT     H1 4884   2.275   2.611   2.169  0.8760  0.3332  0.8348
 1494WAT     H2 4885   2.307   2.716   2.064  0.0267 -1.0004 -0.8069
 1495WAT      O 4886   3.212   0.650   0.671 -0.2388 -0.0190 -0.3749
 1495WAT     H1 4887   3.286   0.706   0.650 -1.1475  1.8993  1.2134
 1495WAT     H2 4888   3.227   0.570   0.620  1.4898  1.3523 -2.1790
 1496WAT      O 4889   4.783   5.568   4.742 -0.0705  0.0961 -0.1089
 1496WAT     H1 4890   4.840   5.496   4.768 -0.9546 -0.7907 -0.6056
 1496WAT     H2 4891   4.834   5.647   4.762 -0.0776 -0.5447  2.8712
 1497WAT      O 4892   4.640   4.507   1.993 -0.0209 -0.0108  0.1620
 1497WAT     H1 4893   4.685   4.587   2.021 -0.5865  0.7510 -1.0220
 1497WAT     H2 4894   4.559   4.506   2.044 -0.8343  1.1231 -1.0657
 1498WAT      O 4895   6.747   4.374   2.402  0.3848  0.2426  0.1445
 1498WAT     H1 4896   6.806   4.448   2.386  3.0071 -1.7965 -0.5137
 1498WAT     H2 4897   6.702   4.360   2.319  1.7430 -0.3159 -0.5464
 1499WAT      O 4898   7.183   3.869   4.517 -0.5590  0.0168 -0.2548
 1499WAT     H1 4899   7.167   3.794   4.460 -1.5556 -0.3572  0.4848
 1499WAT     H2 4900   7.248   3.839   4.580  0.2062  0.2868 -0.9013
 1500WAT      O 4901   3.484   3.488   3.699  0.1992 -0.6716  0.4312
 1500WAT     H1 4902   3.530   3.460   3.620  1.8493  1.1496  0.6553
 1500WAT     H2 4903   3.513   3.428   3.767 -0.3177 -1.5259 -0.0882
 1501WAT      O 4904   0.013   5.841   4.999  0.1391  0.0822 -0.1067
 1501WAT     H1 4905   0.033   5.819   5.090 -1.2540  0.2947  0.2754
 1501WAT     H2 4906  -0.078   5.813   4.987  0.8525 -1.6304 -2.0052
 1502WAT      O 4907   4.727   1.347   4.858  0.1600 -0.3845  0.3420
 1502WAT     H1 4908   4.796   1.383   4.802  0.5004  1.1414  1.6386
 1502WAT     H2 4909   4.666   1.304   4.798  0.6509  0.9319 -1.1616
 1503WAT      O 4910   5.146   1.614   4.571 -0.0798  0.1837 -0.3726
 1503WAT     H1 4911   5.182   1.702   4.557  0.5349  0.2284  1.2489
 1503WAT     H2 4912   5.176   1.564   4.495  0.7292  1.0248 -0.6293
 1504WAT      O 4913   5.317   1.948   2.172 -0.1327  0.4611 -0.1168
 1504WAT     H1 4914   5.365   1.947   2.254  0.0370  2.2781 -0.1710
 1504WAT     H2 4915   5.254   1.875   2.180  1.9763 -1.4166  0.2806
 1505WAT      O 4916   2.806   3.532   0.633 -0.4007 -0.3540  0.5167
 1505WAT     H1 4917   2.878   3.502   0.578 -1.6640 -0.0856 -1.3793
 1505WAT     H2 4918   2.797   3.465   0.700 -0.1429 -1.8106 -0.8447
 1506WAT      O 4919   7.003   4.975   3.930 -0.0562  0.3171 -0.6844
 1506WAT     H1 4920   7.072   5.016   3.879 -1.0774  1.0978 -1.4822
 1506WAT     H2 4921   6.975   5.042   3.993  0.9273 -0.5067  0.6956
 1507WAT      O 4922   0.734   0.862   4.321 -0.9340  0.8141 -0.2693
 1507WAT     H1 4923   0.660   0.880   4.263  0.2169 -0.2196 -2.1419
 1507WAT     H2 4924   0.757   0.771   4.302  1.1437  1.2700 -0.1222
 1508WAT      O 4925   0.260   1.960   0.691  0.8004  0.0204  0.0120
 1508WAT     H1 4926   0.213   1.891   0.738 -0.2630  0.1589 -0.8044
 1508WAT     H2 4927   0.234   1.948   0.600  3.6844 -0.9419 -0.7655
 1509WAT      O 4928   5.241   1.321   0.907 -0.8243  0.0562 -0.1140
 1509WAT     H1 4929   5.303   1.248   0.913 -0.9470 -0.2055 -1.6985
 1509WAT     H2 4930   5.204   1.328   0.995 -1.2971 -2.2372 -0.0676
 1510WAT      O 4931   6.506   1.130   2.581  0.2903  0.6959 -0.1395
 1510WAT     H1 4932   6.466   1.045   2.565 -1.4460  1.3114  0.6755
 1510WAT     H2 4933   6.572   1.113   2.649 -0.6475  0.1393  0.6505
 1511WAT      O 4934   6.608   4.246   0.016 -0.0957 -0.2719 -1.0596
 1511WAT     H1 4935   6.583   4.218   0.104 -0.4803  0.8546 -0.7891
 1511WAT     H2 4936   6.543   4.313  -0.007  0.2941 -0.1994 -2.0019
 1512WAT      O 4937   1.673   6.238   4.024 -0.0321  0.0907 -0.1076
 1512WAT     H1 4938   1.687   6.318   3.973  0.0338  0.1371 -0.0160
 1512WAT     H2 4939   1.591   6.254   4.071  0.8333  0.7909  1.2248
 1513WAT      O 4940   4.214   4.995   4.312  0.1072  0.2283 -0.3371
 1513WAT     H1 4941   4.122   4.966   4.312 -0.5617  2.2161  0.1149
 1513WAT     H2 4942   4.259   4.928   4.365 -1.6207  0.6665  1.8813
 1514WAT      O 4943   7.145   4.221   3.528 -0.1165  0.4176  0.6309
 1514WAT     H1 4944   7.095   4.207   3.448  0.8616 -1.8819  0.3357
 1514WAT     H2 4945   7.104   4.163   3.592  1.8431 -1.2602  0.4780
 1515WAT      O 4946   5.520   5.851   6.171 -0.4694  0.9072 -0.5668
 1515WAT     H1 4947   5.557   5.939   6.158  0.4755  0.2367 -2.9580
 1515WAT     H2 4948   5.474   5.832   6.089 -0.3309 -0.9675 -0.2502
 1516WAT      O 4949   5.391   5.186   1.394 -0.9375  0.1132  0.5518
 1516WAT     H1 4950   5.348   5.253   1.447 -0.5417  0.3170  0.6153
 1516WAT     H2 4951   5.480   5.181   1.429  0.6970  3.1010 -2.5301
 1517WAT      O 4952   4.868   4.324   4.032 -0.1726 -0.4246  0.0595
 1517WAT     H1 4953   4.856   4.397   4.094 -1.4531  0.2356 -0.9101
 1517WAT     H2 4954   4.884   4.367   3.948 -2.3793 -1.1806 -0.8203
 1518WAT      O 4955   4.644   3.676   4.975  0.2334  0.6644  0.1722
 1518WAT     H1 4956   4.566   3.625   4.999  0.3998  0.6957  0.7935
 1518WAT     H2 4957   4.709   3.611   4.950  0.4874  0.5536  1.0869
 1519WAT      O 4958   2.457   0.115   3.164  0.2144  0.4906 -0.3282
 1519WAT     H1 4959   2.403   0.163   3.227 -0.3976 -1.6233  0.8165
 1519WAT     H2 4960   2.544   0.153   3.173 -0.4035  1.9110 -0.0392
 1520WAT      O 4961   4.462   3.415   3.152  0.3149 -0.4260  0.3294
 1520WAT     H1 4962   4.541   3.457   3.185  0.2840 -0.7990  0.8800
 1520WAT     H2 4963   4.390   3.459   3.198  0.1995 -0.1090 -0.1452
 1521WAT      O 4964   7.269   6.205   3.063 -0.0731  0.3353 -0.4465
 1521WAT     H1 4965   7.338   6.152   3.104 -1.1827 -1.4230 -0.7292
 1521WAT     H2 4966   7.232   6.256   3.135  0.4197  0.0295  0.0321
 1522WAT      O 4967   6.118   0.368   0.232  0.2601  0.0795  0.2510
 1522WAT     H1 4968   6.122   0.313   0.310  0.2188 -1.6218 -0.8890
 1522WAT     H2 4969   6.080   0.450   0.263 -0.0214 -0.6367  1.9534
 1523WAT      O 4970   0.295   2.829   5.701  0.0584  0.0884 -0.4497
 1523WAT     H1 4971   0.286   2.774   5.779 -3.3058 -0.4252 -1.0753
 1523WAT     H2 4972   0.223   2.803   5.644 -0.4400  3.6418 -1.7134
 1524WAT      O 4973   1.865   6.975   4.107  0.1554  0.5970  0.4334
 1524WAT     H1 4974   1.893   6.899   4.157  1.7831 -0.2248 -1.6122
 1524WAT     H2 4975   1.909   7.049   4.149 -0.7200  0.3552  1.8684
 1525WAT      O 4976   5.947   2.143   5.461 -0.0518 -0.0182 -0.4189
 1525WAT     H1 4977   5.884   2.183   5.520 -1.7968  0.4904 -2.5335
 1525WAT     H2 4978   5.912   2.055   5.444  0.2898 -0.0648 -0.9069
 1526WAT      O 4979   4.692   1.995   0.167  0.3579  0.0143  0.8308
 1526WAT     H1 4980   4.734   1.945   0.098 -0.6458 -0.1757  0.3445
 1526WAT     H2 4981   4.756   2.063   0.190  0.3051  0.7415 -1.0142
 1527WAT      O 4982   0.384   2.100   1.813  0.5867  0.6721  0.0853
 1527WAT     H1 4983   0.386   2.036   1.741  1.0755  1.3621 -0.5324
 1527WAT     H2 4984   0.407   2.049   1.890 -0.9161 -0.2986 -0.0532
 1528WAT      O 4985   3.268   3.068   5.935  0.3627  0.0369  0.2347
 1528WAT     H1 4986   3.283   2.975   5.951  0.3448 -0.0437 -0.2046
 1528WAT     H2 4987   3.197   3.071   5.872  2.4887  0.2085 -2.3216
 1529WAT      O 4988   2.748   1.653   0.523 -0.7165  0.6226  0.2624
 1529WAT     H1 4989   2.810   1.719   0.553  1.0157 -0.8806  0.1442
 1529WAT     H2 4990   2.662   1.692   0.538  0.2365  3.0410 -0.1717
 1530WAT      O 4991   0.315   6.664   2.583 -0.4940 -0.2818 -0.0135
 1530WAT     H1 4992   0.306   6.758   2.602  0.7164 -0.1829  0.1485
 1530WAT     H2 4993   0.332   6.660   2.489  0.6042 -0.2326  0.1662
 1531WAT      O 4994   3.651   4.141   1.325  0.6313  0.1490 -0.5345
 1531WAT     H1 4995   3.645   4.068   1.264  0.4617  0.8259 -1.3416
 1531WAT     H2 4996   3.580   4.126   1.388  2.0750 -1.6614  0.7630
 1532WAT      O 4997   3.721   5.603   3.213  0.8232  0.6403  0.8338
 1532WAT     H1 4998   3.702   5.603   3.307  2.0573  0.4014  1.1032
 1532WAT     H2 4999   3.817   5.605   3.208  0.7788  2.7580 -0.4343
 1533WAT      O 5000   4.724   1.296   4.008 -0.9964  0.3475  0.5710
 1533WAT     H1 5001   4.639   1.323   4.042 -1.6138  0.0644 -0.6965
 1533WAT     H2 5002   4.706   1.215   3.960 -0.1183  0.5837 -0.1876
 1534WAT      O 5003   5.282   0.349   0.108 -0.4232  0.1342  0.1822
 1534WAT     H1 5004   5.297   0.259   0.082 -0.0284  0.2042  0.1612
 1534WAT     H2 5005   5.197   0.372   0.070  0.1388  0.2341 -1.0523
 1535WAT      O 5006   6.551   2.632   0.426 -0.2831 -0.1002  0.4302
 1535WAT     H1 5007   6.522   2.560   0.482 -0.8302  1.6147  2.5016
 1535WAT     H2 5008   6.571   2.703   0.487  1.4639  1.1102 -1.4432
 1536WAT      O 5009   7.019   6.932   2.174 -0.1549  0.0163 -0.6130
 1536WAT     H1 5010   7.061   7.016   2.154  1.5507 -0.0853  2.0663
 1536WAT     H2 5011   6.972   6.947   2.256  1.2007 -1.8663  0.6022
 1537WAT      O 5012   1.093   1.939   1.671 -0.0939  0.3283 -0.4774
 1537WAT     H1 5013   1.136   1.853   1.673  0.1486  0.4707  1.1595
 1537WAT     H2 5014   1.005   1.922   1.706 -0.4864  0.5335 -1.3342
 1538WAT      O 5015   3.785   4.331   1.990 -0.3715 -0.7249  0.2041
 1538WAT     H1 5016   3.690   4.324   1.975 -0.4920  0.3658  0.4253
 1538WAT     H2 5017   3.794   4.390   2.064  0.5738  2.7053 -2.4048
 1539WAT      O 5018   0.376   2.427   6.045 -0.0661  0.2868  0.3423
 1539WAT     H1 5019   0.441   2.358   6.028 -2.0153 -1.0682 -2.2963
 1539WAT     H2 5020   0.300   2.380   6.080 -0.6521  1.4324  0.6351
 1540WAT      O 5021   0.858   1.685   1.560  0.4424  0.1402 -0.3817
 1540WAT     H1 5022   0.848   1.622   1.631  0.3532 -0.3580 -0.8268
 1540WAT     H2 5023   0.947   1.670   1.528  1.1658  1.6218  0.7990
 1541WAT      O 5024   6.311   6.265   1.551  0.3785 -0.2303  0.0564
 1541WAT     H1 5025   6.255   6.195   1.518  0.6367  0.1076 -1.1524
 1541WAT     H2 5026   6.264   6.301   1.626  1.0853 -2.8929  1.9342
 1542WAT      O 5027   7.569   1.711   4.216  0.2847 -0.3549  0.0814
 1542WAT     H1 5028   7.516   1.731   4.140  0.5402 -3.3438 -1.0408
 1542WAT     H2 5029   7.514   1.733   4.291 -1.0621  0.1058 -1.0039
 1543WAT      O 5030   0.719   1.498   3.308  0.0291 -0.4551  0.3983
 1543WAT     H1 5031   0.651   1.556   3.275  0.3237  0.2576  0.9998
 1543WAT     H2 5032   0.787   1.500   3.241  0.9666  1.5955  1.2943
 1544WAT      O 5033   6.182   1.904   1.168  0.1171  0.0021  0.9907
 1544WAT     H1 5034   6.236   1.840   1.215 -0.5033 -1.1939  0.1179
 1544WAT     H2 5035   6.092   1.882   1.192 -0.2776 -1.1126 -1.2292
 1545WAT      O 5036   4.956   6.876   3.202 -0.4185  0.4798 -0.2205
 1545WAT     H1 5037   5.040   6.911   3.232 -0.6645  2.3063 -1.4778
 1545WAT     H2 5038   4.944   6.912   3.114 -2.5231  0.3122 -0.0711
 1546WAT      O 5039   2.785   1.943   0.440  0.2062  0.2581 -0.1540
 1546WAT     H1 5040   2.872   1.937   0.480 -0.4399  1.9661  1.6755
 1546WAT     H2 5041   2.724   1.923   0.511 -0.9447 -1.5664 -1.5507
 1547WAT      O 5042   3.867   4.470   5.742  1.0281 -0.0628 -0.3781
 1547WAT     H1 5043   3.887   4.404   5.808  1.1720  1.0668  0.7416
 1547WAT     H2 5044   3.805   4.529   5.784  1.6515  1.0740 -0.9899
 1548WAT      O 5045   2.046   5.168   5.364  0.1733 -0.2362 -0.0722
 1548WAT     H1 5046   2.050   5.202   5.453 -0.9536 -0.2271 -0.0131
 1548WAT     H2 5047   2.038   5.074   5.374  1.6360 -0.3972 -0.2098
 1549WAT      O 5048   0.190   0.084   4.776 -0.3494  0.2960  0.2978
 1549WAT     H1 5049   0.144   0.040   4.848 -0.8655 -1.1640 -0.8938
 1549WAT     H2 5050   0.124   0.144   4.740 -1.0868 -1.1295 -0.8196
 1550WAT      O 5051   6.774   1.967   1.051 -0.5437  0.3077 -0.0401
 1550WAT     H1 5052   6.700   1.984   0.992 -0.1270  3.0964  0.0725
 1550WAT     H2 5053   6.851   1.983   0.996 -0.1139  0.7210  0.6660
 1551WAT      O 5054   4.078   5.121   0.739 -0.2967 -0.6053  0.1045
 1551WAT     H1 5055   4.121   5.192   0.786 -0.0019 -0.3120 -0.5982
 1551WAT     H2 5056   3.984   5.139   0.749 -0.2209  0.8038 -1.4364
 1552WAT      O 5057   3.125   6.083   0.896 -0.0170  0.1453 -0.4370
 1552WAT     H1 5058   3.059   6.137   0.852  0.2380 -1.6799 -3.2737
 1552WAT     H2 5059   3.084   5.996   0.902  0.8839 -0.2141  0.8883
 1553WAT      O 5060   0.395   1.270   4.135 -0.7853  0.0527  0.2600
 1553WAT     H1 5061   0.344   1.286   4.214  0.2664  0.5191  0.8518
 1553WAT     H2 5062   0.393   1.353   4.088 -0.4276  0.1222  0.3674
 1554WAT      O 5063   4.437   3.583   5.361 -0.5649  0.2665 -0.2482
 1554WAT     H1 5064   4.437   3.493   5.396 -0.4930  0.4430  0.2077
 1554WAT     H2 5065   4.524   3.617   5.383 -0.6056  0.4615 -0.3908
 1555WAT      O 5066   7.018   3.648   3.940 -0.5247  0.1242 -0.4678
 1555WAT     H1 5067   7.096   3.697   3.964  0.1148 -1.2295  0.3101
 1555WAT     H2 5068   7.042   3.557   3.953 -3.0088 -0.2826  2.2573
 1556WAT      O 5069   7.371   2.560   1.971 -0.2090  0.3291 -0.0343
 1556WAT     H1 5070   7.361   2.637   2.027 -1.0348 -0.5958  1.1392
 1556WAT     H2 5071   7.464   2.559   1.949 -0.2435  1.8336 -0.3537
 1557WAT      O 5072   7.322   4.251   0.182  0.3660  0.4241 -0.3212
 1557WAT     H1 5073   7.299   4.174   0.129  0.5028  0.1138  0.0633
 1557WAT     H2 5074   7.416   4.244   0.196  0.8667  2.0563 -2.4486
 1558WAT      O 5075   1.823   0.904   5.945  0.2076 -0.0093 -0.3704
 1558WAT     H1 5076   1.773   0.933   6.020  0.7015 -0.3355  0.0977
 1558WAT     H2 5077   1.904   0.956   5.947  0.7661 -0.8602  0.0462
 1559WAT      O 5078   7.563   6.837   6.005  0.1505  0.2216  0.1003
 1559WAT     H1 5079   7.586   6.898   6.076 -0.2162  0.3751  0.0892
 1559WAT     H2 5080   7.494   6.882   5.957 -1.4079 -0.9465  1.1504
 1560WAT      O 5081   6.683   6.073   1.061  0.0468 -0.7019 -0.1523
 1560WAT     H1 5082   6.603   6.031   1.093  0.4047 -1.9271 -0.8144
 1560WAT     H2 5083   6.749   6.051   1.128 -0.2535  0.7293  0.6537
 1561WAT      O 5084   1.430   0.274   3.618 -0.4092  0.2854  0.1301
 1561WAT     H1 5085   1.337   0.253   3.612 -0.2157 -0.2004 -1.4072
 1561WAT     H2 5086   1.449   0.325   3.539  0.9087 -0.7475 -0.2554
 1562WAT      O 5087   4.427   1.032   2.526 -0.0865 -0.3909 -0.2013
 1562WAT     H1 5088   4.400   1.097   2.591 -1.4204  0.3701 -1.4777
 1562WAT     H2 5089   4.410   0.948   2.569  0.8513  0.0624  1.1348
 1563WAT      O 5090   6.599   2.440   3.955 -0.4234 -0.4065  0.2438
 1563WAT     H1 5091   6.604   2.535   3.943 -1.3823 -0.3218  0.4711
 1563WAT     H2 5092   6.512   2.416   3.922 -1.0163 -0.9133  2.0831
 1564WAT      O 5093   0.886   4.357   4.420  0.0464  0.8124 -0.4744
 1564WAT     H1 5094   0.914   4.396   4.337  0.8840  0.5608 -0.3158
 1564WAT     H2 5095   0.832   4.283   4.393  0.4786  0.6114 -0.8060
 1565WAT      O 5096   0.089   2.109   1.606 -0.2782  0.3242  0.4500
 1565WAT     H1 5097   0.172   2.062   1.614  0.3694  1.6590  1.9730
 1565WAT     H2 5098   0.086   2.135   1.514 -0.2722 -1.9073 -0.2509
 1566WAT      O 5099   5.432   6.619   1.902  0.3455  0.0869 -0.6080
 1566WAT     H1 5100   5.524   6.598   1.887  0.4426  0.3215 -0.3511
 1566WAT     H2 5101   5.428   6.643   1.995 -0.1082 -0.6152 -0.4430
 1567WAT      O 5102   2.608   2.999   2.182 -0.0249  0.5351 -0.5419
 1567WAT     H1 5103   2.636   3.089   2.199  0.3180  0.5016 -0.9216
 1567WAT     H2 5104   2.663   2.970   2.110 -0.8466  0.3676 -1.1114
 1568WAT      O 5105   6.352   5.788   0.955  0.2426  0.0533  0.7039
 1568WAT     H1 5106   6.391   5.738   1.026  0.6367 -0.3949  0.1835
 1568WAT     H2 5107   6.263   5.752   0.946  0.4436 -0.3988  0.4881
 1569WAT      O 5108   0.905   0.141   2.682 -0.2268 -0.0206 -0.8504
 1569WAT     H1 5109   0.813   0.156   2.701 -0.0653 -1.5609  1.5077
 1569WAT     H2 5110   0.949   0.220   2.714 -0.3651 -1.0095  2.0296
 1570WAT      O 5111   1.135   4.289   0.168  0.0133  0.0194 -1.0045
 1570WAT     H1 5112   1.150   4.368   0.117 -1.2444  0.7986 -0.2482
 1570WAT     H2 5113   1.069   4.315   0.233  1.6195 -0.8843  1.0926
 1571WAT      O 5114   4.476   5.913   1.360  0.5347  0.0361  0.2456
 1571WAT     H1 5115   4.401   5.896   1.417  0.8179  4.1199  2.1479
 1571WAT     H2 5116   4.553   5.904   1.417  1.2448 -0.6060 -0.7765
 1572WAT      O 5117   1.423   4.230   5.453  0.3909 -0.2571 -0.0883
 1572WAT     H1 5118   1.390   4.251   5.365  0.0088 -1.0674 -0.1422
 1572WAT     H2 5119   1.373   4.286   5.511 -0.5047 -0.8702 -0.2471
 1573WAT      O 5120   3.860   1.901   3.946  0.2496 -0.1064  0.1129
 1573WAT     H1 5121   3.792   1.919   4.010 -0.5070 -2.9430  0.2395
 1573WAT     H2 5122   3.940   1.893   3.997  0.1644  0.3539  0.3271
 1574WAT      O 5123   2.566   0.855   5.515  0.0643  0.5890  0.1845
 1574WAT     H1 5124   2.476   0.864   5.544 -0.2377 -1.9695  0.2783
 1574WAT     H2 5125   2.613   0.822   5.592  0.6580  0.0377 -0.4032
 1575WAT      O 5126   6.653   3.050   6.248  0.9548  0.4361 -0.4818
 1575WAT     H1 5127   6.577   3.049   6.189  1.4420  1.6188 -1.1514
 1575WAT     H2 5128   6.675   3.142   6.259  0.4699  0.3101  2.1492
 1576WAT      O 5129   0.285   7.155   0.676  0.5041  0.0935  0.1283
 1576WAT     H1 5130   0.302   7.181   0.767 -0.9653  0.0786  0.4309
 1576WAT     H2 5131   0.296   7.060   0.676  1.2895  0.1751  0.0908
 1577WAT      O 5132   3.605   5.701   1.950 -0.4701 -0.2594  0.2932
 1577WAT     H1 5133   3.622   5.631   2.013 -3.1633 -2.0540 -0.8207
 1577WAT     H2 5134   3.594   5.779   2.004 -2.1021 -1.6295  2.0822
 1578WAT      O 5135   3.453   5.001   4.919 -0.3673 -0.0095 -0.2564
 1578WAT     H1 5136   3.499   5.058   4.858 -2.6715  0.4908 -1.6544
 1578WAT     H2 5137   3.519   4.976   4.984  1.4591  1.7525 -1.3404
 1579WAT      O 5138   1.436   2.435   4.657 -0.1446 -0.1257  0.2221
 1579WAT     H1 5139   1.526   2.434   4.691 -0.4011  1.2185  1.0495
 1579WAT     H2 5140   1.382   2.454   4.734 -1.1150 -0.6293 -0.3184
 1580WAT      O 5141   0.625   1.359   4.940  0.2028  0.0129 -0.3216
 1580WAT     H1 5142   0.569   1.435   4.926 -0.8031 -0.6303  0.1022
 1580WAT     H2 5143   0.591   1.319   5.020  0.4177 -1.1311 -0.7837
 1581WAT      O 5144   5.586   1.138   3.459  0.1045 -0.3335  0.3914
 1581WAT     H1 5145   5.610   1.110   3.370 -1.3568 -0.6088  0.0594
 1581WAT     H2 5146   5.594   1.058   3.512  1.4566 -0.0615  0.6372
 1582WAT      O 5147   3.471   4.656   2.787 -0.4153  0.6824  0.4322
 1582WAT     H1 5148   3.527   4.580   2.799  0.0543  1.1780  1.6048
 1582WAT     H2 5149   3.520   4.714   2.729 -0.4287  0.4300  0.1697
 1583WAT      O 5150   4.070   6.961   4.231  0.1859 -0.7256 -0.2395
 1583WAT     H1 5151   4.160   6.985   4.251  0.1333 -1.5937  1.1885
 1583WAT     H2 5152   4.024   6.968   4.315 -1.3773  0.8332 -1.1459
 1584WAT      O 5153   7.009   0.367   2.004  0.9691 -0.4578  0.1218
 1584WAT     H1 5154   7.077   0.350   2.070  0.2248 -3.0222  0.3594
 1584WAT     H2 5155   6.927   0.360   2.053  0.4325  2.4766 -0.1888
 1585WAT      O 5156   4.135   0.276   5.970 -0.6192  0.4066  0.2818
 1585WAT     H1 5157   4.063   0.214   5.977 -0.8195  0.8566  3.3797
 1585WAT     H2 5158   4.113   0.331   5.895 -2.6794 -0.4565  0.2095
 1586WAT      O 5159   4.547   1.818   1.810 -0.4388  0.1310  0.0234
 1586WAT     H1 5160   4.469   1.771   1.781 -0.4509 -0.2474  0.6495
 1586WAT     H2 5161   4.576   1.867   1.733 -1.3665  0.3737 -0.1777
 1587WAT      O 5162   3.577   3.330   1.564 -0.3832 -0.0116  0.0407
 1587WAT     H1 5163   3.534   3.377   1.493 -2.2295  0.1755  1.2170
 1587WAT     H2 5164   3.608   3.249   1.524 -0.9322  0.3134 -1.0871
 1588WAT      O 5165   4.152   1.126   5.740  0.4360 -0.0005 -0.0587
 1588WAT     H1 5166   4.120   1.186   5.807 -1.6603 -1.5939  0.4695
 1588WAT     H2 5167   4.174   1.045   5.787  0.3513 -0.6484 -1.0881
 1589WAT      O 5168   0.115   3.105   1.789 -0.0214 -0.1199 -0.0633
 1589WAT     H1 5169   0.035   3.128   1.835  1.0792  1.2347  1.2798
 1589WAT     H2 5170   0.087   3.084   1.700 -1.8101  0.5677  0.3085
 1590WAT      O 5171   2.999   3.460   4.924  0.3028 -0.5226  0.3413
 1590WAT     H1 5172   3.035   3.547   4.908  1.1385 -1.0928 -1.0956
 1590WAT     H2 5173   2.948   3.441   4.846  0.2867 -1.3959  0.5603
 1591WAT      O 5174   2.450   3.226   5.740 -0.2725  0.3290  0.0891
 1591WAT     H1 5175   2.521   3.290   5.736 -2.3898  2.8627 -0.3858
 1591WAT     H2 5176   2.417   3.232   5.830  0.0198 -0.7123  0.2685
 1592WAT      O 5177   6.851   2.889   5.633  0.3364 -0.4601 -0.2204
 1592WAT     H1 5178   6.922   2.905   5.571 -0.1761  1.1073 -0.4385
 1592WAT     H2 5179   6.834   2.975   5.673 -0.2807 -1.1532  1.0781
 1593WAT      O 5180   6.272   1.964   3.876  0.4881  0.2019 -0.2989
 1593WAT     H1 5181   6.213   1.982   3.950 -0.9333 -1.4862 -0.9308
 1593WAT     H2 5182   6.327   1.892   3.908 -1.0477 -1.4868 -1.2408
 1594WAT      O 5183   1.253   0.821   4.183 -0.2895 -0.0211 -0.2157
 1594WAT     H1 5184   1.335   0.827   4.134 -0.2157 -1.2369 -0.2848
 1594WAT     H2 5185   1.219   0.734   4.161 -0.4088 -0.4884  1.6188
 1595WAT      O 5186   0.792   5.819   5.326 -0.0184  0.4984  0.6139
 1595WAT     H1 5187   0.837   5.737   5.349 -1.2807  0.2579  2.4068
 1595WAT     H2 5188   0.843   5.887   5.369  0.3830  0.5607  0.0558
 1596WAT      O 5189   6.943   0.361   4.515 -0.0883  0.1307  0.2414
 1596WAT     H1 5190   6.978   0.277   4.545 -0.1922 -0.0567 -0.1555
 1596WAT     H2 5191   6.947   0.356   4.419 -1.2806  0.0707  0.1890
 1597WAT      O 5192   6.359   1.509   1.215 -0.3106  0.0292 -0.2644
 1597WAT     H1 5193   6.432   1.538   1.270 -0.5506  1.7599 -0.8069
 1597WAT     H2 5194   6.324   1.432   1.261  0.0574  0.8758  1.5435
 1598WAT      O 5195   0.957   1.849   5.238 -0.5821  0.5641 -0.0861
 1598WAT     H1 5196   0.905   1.903   5.298  0.1777  0.2984  0.8400
 1598WAT     H2 5197   0.909   1.767   5.232 -1.6123  1.2226 -1.3008
 1599WAT      O 5198   3.429   1.857   5.014  0.9350 -1.1660  0.5584
 1599WAT     H1 5199   3.370   1.919   5.059  1.9910  0.9372 -0.8014
 1599WAT     H2 5200   3.514   1.901   5.016  1.2031 -1.3564 -2.6955
 1600WAT      O 5201   3.270   4.991   0.465  0.0292  0.4120  0.6561
 1600WAT     H1 5202   3.275   5.086   0.463  0.7371  0.4724  2.7849
 1600WAT     H2 5203   3.252   4.969   0.556  1.4903 -1.5348  0.5630
 1601WAT      O 5204   2.700   4.996   3.525  0.7609  0.4162  0.7535
 1601WAT     H1 5205   2.760   4.947   3.580  0.4197 -0.1327  0.6393
 1601WAT     H2 5206   2.699   5.084   3.563  0.0104 -0.1224  2.0345
 1602WAT      O 5207   6.970   6.609   6.124 -1.1688 -0.4326 -0.2481
 1602WAT     H1 5208   6.900   6.667   6.095 -0.6557  0.9839  1.2247
 1602WAT     H2 5209   7.038   6.668   6.157  0.6802 -1.7621 -1.4668
 1603WAT      O 5210   2.021   6.087   5.749 -0.2428  0.2882 -0.2285
 1603WAT     H1 5211   2.053   6.120   5.833 -2.0843 -1.3638  1.2193
 1603WAT     H2 5212   2.073   6.008   5.733 -1.0089 -0.3272  0.2427
 1604WAT      O 5213   1.653   2.267   5.047 -0.2705  0.3694 -0.1835
 1604WAT     H1 5214   1.576   2.322   5.061 -1.1182 -0.5929 -0.9014
 1604WAT     H2 5215   1.709   2.283   5.123 -0.5702  2.0666 -0.2832
 1605WAT      O 5216   3.683   6.851   2.300  0.3405  0.2397  0.0784
 1605WAT     H1 5217   3.662   6.763   2.330  2.4417 -1.3236 -2.5687
 1605WAT     H2 5218   3.751   6.882   2.359  1.3150 -0.9551 -0.3908
 1606WAT      O 5219   2.030   1.634   2.914 -0.0684 -0.2263  0.0650
 1606WAT     H1 5220   1.985   1.675   2.987  1.4225  0.6609  0.5351
 1606WAT     H2 5221   2.103   1.693   2.894  1.9594 -2.3973  0.5215
 1607WAT      O 5222   4.295   3.909   2.841 -0.5550 -0.6487 -0.0012
 1607WAT     H1 5223   4.293   3.855   2.762  0.0332  0.8546 -1.1058
 1607WAT     H2 5224   4.303   3.847   2.913  3.7214 -2.0505 -1.3565
 1608WAT      O 5225   5.960   3.275   3.354 -0.1421 -0.5641 -0.7387
 1608WAT     H1 5226   6.048   3.278   3.315 -0.4737 -1.6938 -1.6158
 1608WAT     H2 5227   5.940   3.182   3.362 -1.1940 -0.3208 -0.3622
 1609WAT      O 5228   4.468   6.118   5.082 -0.1186  0.1617  0.7663
 1609WAT     H1 5229   4.456   6.068   5.162 -2.8089 -1.0921 -0.2760
 1609WAT     H2 5230   4.397   6.088   5.024 -0.2325  3.2593 -0.9300
 1610WAT      O 5231   1.266   6.170   4.333  0.3942 -0.0012 -0.1070
 1610WAT     H1 5232   1.245   6.087   4.375  0.4792 -0.0694 -0.2002
 1610WAT     H2 5233   1.341   6.203   4.383  1.1308 -0.5577 -0.8316
 1611WAT      O 5234   7.401   1.042   5.792  0.0188 -0.0069  0.1978
 1611WAT     H1 5235   7.394   1.017   5.884 -1.1254  0.1159  0.1636
 1611WAT     H2 5236   7.334   1.110   5.781 -0.4431 -0.6198 -0.9227
 1612WAT      O 5237   3.102   6.096   4.121 -0.2508 -0.2101  0.1831
 1612WAT     H1 5238   3.026   6.058   4.166 -1.0686  1.7218  0.5322
 1612WAT     H2 5239   3.173   6.091   4.185 -0.6564 -0.0776  0.6512
 1613WAT      O 5240   4.887   5.367   0.405 -0.1802  1.0686 -0.4401
 1613WAT     H1 5241   4.796   5.346   0.383  0.1940  0.7281 -1.7151
 1613WAT     H2 5242   4.884   5.387   0.499 -1.4255  0.2263 -0.2709
 1614WAT      O 5243   6.256   2.098   2.585 -0.1923  0.2777 -0.0554
 1614WAT     H1 5244   6.197   2.172   2.597  1.2314  1.5029 -0.3390
 1614WAT     H2 5245   6.295   2.083   2.671  0.9219  1.1305 -0.3785
 1615WAT      O 5246   7.440   1.604   1.477  0.0549 -0.6860 -0.1174
 1615WAT     H1 5247   7.520   1.651   1.453 -0.3072  0.3700  0.6565
 1615WAT     H2 5248   7.370   1.661   1.445 -0.4031 -0.5953  1.0352
 1616WAT      O 5249   3.639   0.687   3.511  0.2980  0.3582  0.2920
 1616WAT     H1 5250   3.692   0.681   3.591  0.8566  0.4956 -0.0611
 1616WAT     H2 5251   3.555   0.722   3.541  0.1080 -0.6317  0.9857
 1617WAT      O 5252   6.734   5.594   4.332  0.0297  0.1884  0.3102
 1617WAT     H1 5253   6.708   5.677   4.372  0.4146  0.3273  0.2778
 1617WAT     H2 5254   6.823   5.610   4.300  0.2374 -0.3441  0.6150
 1618WAT      O 5255   6.306   2.798   5.210  0.1366  0.6137  0.2528
 1618WAT     H1 5256   6.301   2.826   5.302 -0.9055  3.4470 -0.5697
 1618WAT     H2 5257   6.218   2.764   5.191  0.7831 -1.4410  0.6363
 1619WAT      O 5258   1.861   2.844   5.468 -0.1362  0.5494  0.2974
 1619WAT     H1 5259   1.799   2.904   5.426 -0.6006 -0.0366  0.1161
 1619WAT     H2 5260   1.809   2.765   5.485  0.4696  0.1851  0.4860
 1620WAT      O 5261   2.813   1.178   4.530 -0.1325  0.5840 -0.2029
 1620WAT     H1 5262   2.900   1.141   4.549  1.4428  3.7186 -0.5697
 1620WAT     H2 5263   2.785   1.215   4.613 -1.5343 -1.0017  0.0837
 1621WAT      O 5264   1.128   5.697   5.520  0.8018 -0.2115 -0.4460
 1621WAT     H1 5265   1.223   5.704   5.508  0.7258  0.7997 -0.5574
 1621WAT     H2 5266   1.111   5.747   5.600  0.3151 -0.0049 -0.6733
 1622WAT      O 5267   0.535   0.742   1.041  0.4414  0.5568 -0.0704
 1622WAT     H1 5268   0.447   0.769   1.069  0.5707 -0.6562  1.6228
 1622WAT     H2 5269   0.592   0.814   1.069  0.3788 -0.0256  1.6248
 1623WAT      O 5270   5.934   5.017   4.502 -0.7789 -0.8731 -0.1984
 1623WAT     H1 5271   5.994   5.079   4.461 -0.3371 -2.3532 -1.8945
 1623WAT     H2 5272   5.980   4.933   4.499 -1.7575 -1.4993  1.1658
 1624WAT      O 5273   6.257   1.250   0.424  0.0537  0.5833  0.0813
 1624WAT     H1 5274   6.317   1.267   0.496  0.1371  0.6015  0.0073
 1624WAT     H2 5275   6.300   1.182   0.373 -0.4474 -0.1196  0.5797
 1625WAT      O 5276   1.810   0.850   0.141 -0.7219 -0.3767 -0.1948
 1625WAT     H1 5277   1.804   0.845   0.236  2.1499 -2.0988  0.0063
 1625WAT     H2 5278   1.899   0.821   0.120 -0.0336  3.0254 -3.2253
 1626WAT      O 5279   3.591   1.738   1.821  0.2669 -0.6802 -0.1045
 1626WAT     H1 5280   3.507   1.700   1.794  0.5779 -1.8316  0.4983
 1626WAT     H2 5281   3.567   1.816   1.870 -0.4887 -1.2825  0.5151
 1627WAT      O 5282   5.692   0.571   0.492 -0.2270 -0.1010  0.0321
 1627WAT     H1 5283   5.725   0.604   0.409 -0.2288 -0.9848 -0.3370
 1627WAT     H2 5284   5.599   0.556   0.477  0.0840 -1.8638 -0.3735
 1628WAT      O 5285   4.492   6.591   5.404  0.3078  0.6037 -0.2803
 1628WAT     H1 5286   4.462   6.670   5.449  0.5872  0.1195  0.7942
 1628WAT     H2 5287   4.412   6.541   5.386  0.3234 -1.1613  3.4700
 1629WAT      O 5288   0.439   3.168   5.290  0.1817 -1.0018  0.3350
 1629WAT     H1 5289   0.392   3.192   5.370 -0.1875 -1.6459  0.3206
 1629WAT     H2 5290   0.370   3.147   5.227  0.4688 -0.2929 -0.2232
 1630WAT      O 5291   6.803   3.548   3.451 -0.2036 -0.4369 -0.7056
 1630WAT     H1 5292   6.872   3.541   3.385  1.1899  1.8042  0.3914
 1630WAT     H2 5293   6.837   3.610   3.515 -3.1168  0.5035  0.0926
 1631WAT      O 5294   7.364   1.518   5.104 -0.8073  0.0764 -0.1756
 1631WAT     H1 5295   7.339   1.509   5.196 -1.4182  1.5819 -0.1702
 1631WAT     H2 5296   7.324   1.600   5.076  0.1404  0.1089 -1.5353
 1632WAT      O 5297   4.302   1.809   2.080 -0.2696  0.2916  0.5107
 1632WAT     H1 5298   4.379   1.866   2.073 -0.4211  0.3003 -1.9456
 1632WAT     H2 5299   4.338   1.723   2.104  0.7704 -0.0789 -2.0538
 1633WAT      O 5300   7.556   2.588   3.757  0.5295  0.3528 -0.8428
 1633WAT     H1 5301   7.523   2.637   3.832 -1.4209 -0.2409 -1.2414
 1633WAT     H2 5302   7.605   2.515   3.796 -1.0831 -0.3755 -0.0727
 1634WAT      O 5303   0.358   5.685   0.304  0.2863  0.2471  0.1679
 1634WAT     H1 5304   0.358   5.715   0.395  0.2971 -1.0318  0.6054
 1634WAT     H2 5305   0.282   5.728   0.265  2.6270  4.3004 -0.4776
 1635WAT      O 5306   1.656   5.048   1.872 -0.2691 -0.1399 -0.4817
 1635WAT     H1 5307   1.565   5.054   1.842 -0.7749  2.8255  1.2292
 1635WAT     H2 5308   1.702   5.116   1.822  0.8224 -0.9457 -0.6106
 1636WAT      O 5309   3.410   3.458   5.528 -0.3155 -0.3821  0.3081
 1636WAT     H1 5310   3.379   3.461   5.619 -0.3106 -1.5325  0.3614
 1636WAT     H2 5311   3.498   3.422   5.533 -0.4599 -0.8252 -0.1794
 1637WAT      O 5312   6.873   2.446   0.289 -0.1622 -0.0641 -0.4247
 1637WAT     H1 5313   6.927   2.412   0.360 -0.5808  0.3963  0.1194
 1637WAT     H2 5314   6.783   2.431   0.318 -0.4496  3.0207  0.6580
 1638WAT      O 5315   6.048   6.632   5.479  0.6683 -0.5951  0.2014
 1638WAT     H1 5316   5.954   6.621   5.464  0.7323 -0.5851 -0.2297
 1638WAT     H2 5317   6.058   6.627   5.574  0.2655 -0.8499  0.2333
 1639WAT      O 5318   7.046   3.361   2.223 -0.1535 -0.4352  0.5001
 1639WAT     H1 5319   7.075   3.293   2.285  1.9389 -0.2855 -0.2338
 1639WAT     H2 5320   6.955   3.378   2.248 -0.7841 -3.4565  0.7512
 1640WAT      O 5321   6.879   4.174   3.104  0.6136  0.0713 -0.4020
 1640WAT     H1 5322   6.949   4.139   3.160  2.4005  2.0561 -1.2362
 1640WAT     H2 5323   6.883   4.120   3.025  2.3717  1.0952 -1.0926
 1641WAT      O 5324   2.949   2.027   2.177  0.3002  0.0591 -0.6831
 1641WAT     H1 5325   2.934   1.935   2.200 -0.7645 -0.1592 -2.0894
 1641WAT     H2 5326   2.871   2.072   2.209  1.0503  0.5965  0.4677
 1642WAT      O 5327   0.645   1.118   5.934  0.0565  0.1556  0.1042
 1642WAT     H1 5328   0.564   1.088   5.892 -1.7376  0.3565  3.0808
 1642WAT     H2 5329   0.647   1.071   6.018  3.6374 -0.5981 -0.2178
 1643WAT      O 5330   6.481   5.809   2.816  0.4093 -0.2010 -0.3264
 1643WAT     H1 5331   6.557   5.855   2.782 -0.5215  0.2967 -1.8183
 1643WAT     H2 5332   6.461   5.855   2.898  0.4066  1.0937 -1.0313
 1644WAT      O 5333   5.732   1.724   5.850  0.3539 -0.0773  0.0090
 1644WAT     H1 5334   5.731   1.646   5.795 -0.6729 -0.3640  0.4161
 1644WAT     H2 5335   5.765   1.693   5.935  1.1714  0.2061 -0.1873
 1645WAT      O 5336   5.328   5.956   5.331 -0.3717  0.7133  0.2967
 1645WAT     H1 5337   5.365   5.998   5.408  0.1875 -0.4603  0.6856
 1645WAT     H2 5338   5.233   5.957   5.345 -0.2770  0.6026  0.9438
 1646WAT      O 5339   4.501   2.880   0.897  0.3821  0.3008 -0.1173
 1646WAT     H1 5340   4.410   2.910   0.900  0.5726  0.8270  1.1582
 1646WAT     H2 5341   4.503   2.803   0.953  0.9400  0.9940  0.8618
 1647WAT      O 5342   6.142   1.184   5.550 -0.4262  0.0940 -0.7112
 1647WAT     H1 5343   6.229   1.143   5.552  0.3344  1.5001 -2.2243
 1647WAT     H2 5344   6.109   1.173   5.639  0.8236 -1.4554 -0.3828
 1648WAT      O 5345   1.096   6.150   2.687 -0.0511  0.5950  0.8235
 1648WAT     H1 5346   1.110   6.087   2.617 -0.0482 -0.1707  1.5069
 1648WAT     H2 5347   1.145   6.116   2.761  1.4066  2.3063  0.7097
 1649WAT      O 5348   4.863   4.109   5.035  0.1542 -0.1707  0.1571
 1649WAT     H1 5349   4.934   4.164   5.067 -1.1361  2.1934 -0.8134
 1649WAT     H2 5350   4.805   4.099   5.110 -0.6490  1.6294 -0.1833
 1650WAT      O 5351   4.243   6.712   5.900  0.2504 -0.0104 -0.1242
 1650WAT     H1 5352   4.226   6.673   5.815 -1.4698  1.6288 -0.6015
 1650WAT     H2 5353   4.164   6.692   5.952  1.6192 -1.7423  1.4439
 1651WAT      O 5354   5.890   0.215   5.315  0.7634 -0.2426  0.6360
 1651WAT     H1 5355   5.843   0.142   5.355  1.3674 -0.9629  0.0622
 1651WAT     H2 5356   5.953   0.174   5.255  0.6576  0.7693 -0.2064
 1652WAT      O 5357   5.941   4.376   4.781 -0.2948  0.3207  0.5149
 1652WAT     H1 5358   5.990   4.302   4.746 -0.8490 -0.8149  1.9963
 1652WAT     H2 5359   5.852   4.364   4.747 -0.4220  0.1950  0.8810
 1653WAT      O 5360   3.276   5.386   3.731  0.3650 -0.0519  0.3044
 1653WAT     H1 5361   3.295   5.292   3.735  2.2894  0.2991  0.2219
 1653WAT     H2 5362   3.298   5.412   3.642 -0.0576  0.5110  0.3572
 1654WAT      O 5363   7.038   1.185   5.543 -0.3630  0.4268 -0.1700
 1654WAT     H1 5364   7.099   1.258   5.533  0.4692 -0.2486 -0.1530
 1654WAT     H2 5365   7.088   1.108   5.515 -0.9943 -0.2384  0.4776
 1655WAT      O 5366   2.347   6.843   1.654  0.0686 -0.5127 -0.5480
 1655WAT     H1 5367   2.385   6.931   1.651 -1.0273 -0.0042  0.0652
 1655WAT     H2 5368   2.258   6.853   1.621 -0.2877 -1.2656  0.1271
 1656WAT      O 5369   2.996   4.991   0.778  0.0910  0.0697  0.0560
 1656WAT     H1 5370   2.974   4.951   0.693  0.0817 -1.0704  0.5852
 1656WAT     H2 5371   2.924   5.052   0.794 -0.5192 -0.5656 -0.2150
 1657WAT      O 5372   6.403   3.174   2.998  0.0476 -0.0493 -0.3453
 1657WAT     H1 5373   6.388   3.091   3.043 -2.1551  0.9480  0.9185
 1657WAT     H2 5374   6.447   3.229   3.063  0.1948  0.2269 -0.6761
 1658WAT      O 5375   0.445   6.669   0.754 -0.3479 -0.3823  0.2421
 1658WAT     H1 5376   0.365   6.620   0.774 -1.9437  1.6771 -0.6088
 1658WAT     H2 5377   0.498   6.609   0.702 -1.2234 -1.8846  0.9993
 1659WAT      O 5378   6.015   4.000   3.634 -0.1460  0.2703 -0.2930
 1659WAT     H1 5379   5.954   3.978   3.704  1.3174 -0.7730  0.7014
 1659WAT     H2 5380   5.959   4.029   3.562 -1.7108  0.9110  1.1166
 1660WAT      O 5381   2.585   6.104   4.539  0.2222 -0.3344 -0.3370
 1660WAT     H1 5382   2.661   6.061   4.577  0.8682 -0.8013 -2.0369
 1660WAT     H2 5383   2.572   6.183   4.592  1.4420 -0.6251  0.4262
 1661WAT      O 5384   5.345   1.451   2.510  0.2328 -0.0064  0.7594
 1661WAT     H1 5385   5.398   1.509   2.565 -0.9976  0.0424  1.9633
 1661WAT     H2 5386   5.316   1.507   2.438  0.5776  0.3784  0.9132
 1662WAT      O 5387   6.317   2.647   4.658 -0.0753 -0.3595 -0.3743
 1662WAT     H1 5388   6.387   2.611   4.712 -0.6758 -0.2760  0.4906
 1662WAT     H2 5389   6.241   2.649   4.716  0.0026  2.6564 -0.2142
 1663WAT      O 5390   4.660   5.452   5.606 -0.4933  0.0247 -0.3761
 1663WAT     H1 5391   4.632   5.378   5.661  0.4259 -0.4361 -0.5108
 1663WAT     H2 5392   4.588   5.515   5.613 -1.8371 -1.3416 -1.1670
 1664WAT      O 5393   4.124   1.908   2.717 -0.3846  0.5908  0.2126
 1664WAT     H1 5394   4.107   1.966   2.791 -0.9261 -0.3364  0.8336
 1664WAT     H2 5395   4.126   1.966   2.640 -1.0434  1.3987  0.7954
 1665WAT      O 5396   1.115   7.024   6.205 -0.6318  0.0247  0.2127
 1665WAT     H1 5397   1.200   7.031   6.248 -0.7385 -1.3418  0.6705
 1665WAT     H2 5398   1.069   6.956   6.253 -2.0178  0.7708 -0.0016
 1666WAT      O 5399   3.361   1.304   3.717  0.4275  0.3435 -0.1827
 1666WAT     H1 5400   3.341   1.216   3.686 -0.3008  0.6016 -0.4710
 1666WAT     H2 5401   3.403   1.346   3.643  0.3102  0.3988 -0.2180
 1667WAT      O 5402   7.625   6.392   3.430 -0.1236  0.1906 -0.1828
 1667WAT     H1 5403   7.661   6.309   3.460  2.5647  0.3283 -2.5909
 1667WAT     H2 5404   7.578   6.427   3.506  1.2232 -2.0847  1.8461
 1668WAT      O 5405   6.378   0.750   4.284 -0.3739  0.3797 -0.1654
 1668WAT     H1 5406   6.400   0.843   4.284 -0.2897  0.3589  0.3973
 1668WAT     H2 5407   6.329   0.736   4.365  0.1696 -0.1950  0.0734
 1669WAT      O 5408   4.426   1.651   0.226 -0.7360  0.4149  0.0786
 1669WAT     H1 5409   4.383   1.575   0.186 -2.4742  2.4036 -2.1662
 1669WAT     H2 5410   4.498   1.614   0.277 -1.3605 -2.7003 -1.0630
 1670WAT      O 5411   1.237   3.314   1.014  0.3000 -0.2246 -0.4460
 1670WAT     H1 5412   1.284   3.231   1.020 -0.4678 -0.6808 -0.6460
 1670WAT     H2 5413   1.302   3.376   0.981  0.9045 -0.7180 -0.2116
 1671WAT      O 5414   2.223   2.861   5.804 -0.2034 -0.2842 -0.0978
 1671WAT     H1 5415   2.312   2.868   5.770 -0.0155 -0.2840  0.3863
 1671WAT     H2 5416   2.227   2.789   5.867  0.0694  1.3535  1.8523
 1672WAT      O 5417   2.512   7.198   2.385 -0.2222  0.1263  0.6783
 1672WAT     H1 5418   2.574   7.244   2.328 -1.1223  0.9189  0.3140
 1672WAT     H2 5419   2.524   7.106   2.364 -0.7693  0.4200 -1.0733
 1673WAT      O 5420   5.127   5.558   0.384  0.2901  0.3527  0.3902
 1673WAT     H1 5421   5.120   5.646   0.421 -0.8810  0.1607  0.6555
 1673WAT     H2 5422   5.036   5.528   0.374  0.6654 -0.8784  0.4437
 1674WAT      O 5423   2.795   5.572   3.965  0.3107  0.6374 -0.1126
 1674WAT     H1 5424   2.885   5.597   3.945 -0.1179  0.7904 -2.0957
 1674WAT     H2 5425   2.777   5.612   4.050  1.2748  2.8728 -0.8818
 1675WAT      O 5426   2.010   2.468   5.927 -0.3160  0.5683 -0.3664
 1675WAT     H1 5427   1.971   2.421   5.854  2.7986 -1.7492 -0.7609
 1675WAT     H2 5428   1.939   2.477   5.991 -1.7828 -2.3682 -1.4035
 1676WAT      O 5429   0.694   3.387   5.861 -0.0829 -0.1154 -0.1015
 1676WAT     H1 5430   0.737   3.303   5.881  1.3740  0.5011 -0.5054
 1676WAT     H2 5431   0.688   3.431   5.946 -0.3204 -0.3812  0.0237
 1677WAT      O 5432   5.564   5.281   3.186 -0.6292  0.5032  0.2404
 1677WAT     H1 5433   5.597   5.368   3.206  0.9799 -0.0747  0.2149
 1677WAT     H2 5434   5.601   5.225   3.253  1.3441 -0.7498 -1.7602
 1678WAT      O 5435   4.213   6.745   3.151 -0.4803 -0.2566  0.0109
 1678WAT     H1 5436   4.173   6.764   3.235 -0.8380 -1.0145  0.0222
 1678WAT     H2 5437   4.161   6.796   3.088 -0.9006 -0.5271  0.1313
 1679WAT      O 5438   3.989   2.704   2.962  0.1953  0.5226 -0.8054
 1679WAT     H1 5439   3.972   2.754   3.042  1.7177 -2.3419  1.5193
 1679WAT     H2 5440   3.920   2.638   2.959  1.5708 -1.0273 -0.2862
 1680WAT      O 5441   6.161   4.785   0.815  0.0772 -0.0980  0.3930
 1680WAT     H1 5442   6.245   4.770   0.772 -0.4142  2.0992 -1.5385
 1680WAT     H2 5443   6.103   4.718   0.778  0.3410  0.0609 -0.3352
 1681WAT      O 5444   6.689   2.220   1.931  0.2382  0.3160  0.2832
 1681WAT     H1 5445   6.758   2.281   1.907  0.2039  0.0918 -0.4034
 1681WAT     H2 5446   6.617   2.276   1.960  0.9803  0.5330  1.8162
 1682WAT      O 5447   5.251   4.523   1.572  0.3445  0.3508 -0.0536
 1682WAT     H1 5448   5.295   4.607   1.586 -1.5295  1.3316  0.2042
 1682WAT     H2 5449   5.162   4.536   1.605  0.0811 -1.8402  0.2582
 1683WAT      O 5450   7.423   3.467   1.363 -0.0488 -0.5509 -0.5227
 1683WAT     H1 5451   7.439   3.555   1.395 -0.5660  0.0691 -1.8764
 1683WAT     H2 5452   7.462   3.409   1.428 -1.5979  0.5936  1.5269
 1684WAT      O 5453   0.393   6.048   1.355 -0.2142 -0.1325  0.0597
 1684WAT     H1 5454   0.334   5.973   1.360 -1.6819  0.9996  0.5544
 1684WAT     H2 5455   0.347   6.118   1.403  1.3899  0.8972  0.1792
 1685WAT      O 5456   4.142   0.465   3.214  0.3839  0.1630  0.0310
 1685WAT     H1 5457   4.048   0.480   3.212  0.3955  0.3303  0.5750
 1685WAT     H2 5458   4.174   0.500   3.131 -0.0804 -0.2517 -0.3319
 1686WAT      O 5459   3.863   3.515   4.981 -0.4108 -0.2997  0.2588
 1686WAT     H1 5460   3.841   3.431   5.022 -1.2566  0.5344  1.6200
 1686WAT     H2 5461   3.791   3.573   5.007 -0.6790  0.4590 -1.9634
 1687WAT      O 5462   6.944   6.373   2.012 -0.3326  0.0770 -0.4195
 1687WAT     H1 5463   7.007   6.345   2.078 -0.0178  0.1151 -0.7019
 1687WAT     H2 5464   6.994   6.431   1.954 -0.3313 -0.7758 -1.3004
 1688WAT      O 5465   2.264   5.744   4.629 -0.2226  0.3884 -0.0465
 1688WAT     H1 5466   2.315   5.825   4.622 -0.9311  1.0047  1.3983
 1688WAT     H2 5467   2.302   5.698   4.704  0.0688 -0.5673 -0.7592
 1689WAT      O 5468   2.115   5.608   6.048 -0.2414 -0.1051  1.0686
 1689WAT     H1 5469   2.045   5.618   5.983 -0.8579 -0.0996  1.7266
 1689WAT     H2 5470   2.120   5.694   6.090  1.6883  0.6220 -0.4607
 1690WAT      O 5471   5.651   2.630   1.546  0.3773 -0.0988  0.1237
 1690WAT     H1 5472   5.739   2.618   1.581  1.5078  2.5628 -1.5350
 1690WAT     H2 5473   5.651   2.583   1.463  0.4958  0.5051 -0.2229
 1691WAT      O 5474   2.404   0.950   4.893 -0.6443 -0.0196 -0.6084
 1691WAT     H1 5475   2.424   0.965   4.985 -1.1673 -2.0616 -0.1251
 1691WAT     H2 5476   2.469   1.001   4.845 -0.2934  0.9627  0.8799
 1692WAT      O 5477   5.513   4.155   5.417  0.0342  0.6918 -0.2139
 1692WAT     H1 5478   5.523   4.238   5.463 -1.0906  1.0138 -0.5216
 1692WAT     H2 5479   5.499   4.090   5.486 -0.7949  1.0338 -0.0575
 1693WAT      O 5480   6.373   3.366   5.613  0.1794  0.1298 -0.5161
 1693WAT     H1 5481   6.311   3.294   5.611 -0.6288  0.8085 -0.4432
 1693WAT     H2 5482   6.400   3.372   5.705  2.3041 -1.7610 -0.9345
 1694WAT      O 5483   7.489   1.898   1.661 -0.3724  0.3271  0.0103
 1694WAT     H1 5484   7.545   1.970   1.634 -0.2791  0.2557  0.0154
 1694WAT     H2 5485   7.416   1.899   1.599 -0.5929  0.7004  0.2760
 1695WAT      O 5486   7.605   4.811   1.029  0.1624  0.2226  0.6094
 1695WAT     H1 5487   7.519   4.852   1.040  0.8429  1.8848  0.0512
 1695WAT     H2 5488   7.666   4.884   1.024  1.4235 -0.8640 -0.6635
 1696WAT      O 5489   2.482   6.282   5.809 -0.5306  0.1961  0.3437
 1696WAT     H1 5490   2.530   6.285   5.892  2.2905  0.4689 -1.1595
 1696WAT     H2 5491   2.463   6.189   5.796 -0.3935  0.0746  0.9900
 1697WAT      O 5492   6.232   1.384   6.151  0.3307  0.4681  0.1191
 1697WAT     H1 5493   6.297   1.449   6.127  0.4318  0.6065  0.7484
 1697WAT     H2 5494   6.159   1.398   6.090  1.0375  0.0585 -0.8390
 1698WAT      O 5495   0.632   4.673   4.926  0.0688 -0.2848 -0.4123
 1698WAT     H1 5496   0.606   4.583   4.944 -0.4489  0.0529  0.6204
 1698WAT     H2 5497   0.701   4.692   4.991 -0.0928  0.1769 -0.3702
 1699WAT      O 5498   4.216   6.967   2.364  0.2709  0.3849 -0.0221
 1699WAT     H1 5499   4.179   6.904   2.425  0.2457  0.0986 -0.3300
 1699WAT     H2 5500   4.303   6.932   2.343 -0.3698 -0.4262 -1.4614
 1700WAT      O 5501   2.452   6.680   4.225  0.0699 -0.8026 -0.4055
 1700WAT     H1 5502   2.424   6.768   4.200 -0.4295 -1.1994 -1.2839
 1700WAT     H2 5503   2.507   6.693   4.302  0.0432  0.2819 -0.5594
 1701WAT      O 5504   4.558   6.005   4.740  0.0580 -0.6194  0.3955
 1701WAT     H1 5505   4.545   6.099   4.758  2.0533 -0.4334  1.0801
 1701WAT     H2 5506   4.581   5.968   4.826 -1.9267 -2.0125  0.3863
 1702WAT      O 5507   5.447   2.129   2.787  0.6715  0.2337  0.1353
 1702WAT     H1 5508   5.395   2.149   2.709  1.3575 -0.8728 -0.6416
 1702WAT     H2 5509   5.395   2.064   2.835 -0.0681  1.4193  0.9821
 1703WAT      O 5510   3.470   0.993   1.749  0.2918 -0.0246  0.1644
 1703WAT     H1 5511   3.509   0.984   1.836  2.2278  0.3024 -0.6329
 1703WAT     H2 5512   3.528   0.943   1.691 -1.2197 -0.6285 -0.8978
 1704WAT      O 5513   4.102   1.214   3.218 -0.1971 -0.2194  0.3775
 1704WAT     H1 5514   4.026   1.163   3.245  1.1774 -2.0074  1.0609
 1704WAT     H2 5515   4.102   1.210   3.123 -0.6269 -0.7194  0.3983
 1705WAT      O 5516   7.031   3.837   1.615  0.1535 -0.4173 -0.4019
 1705WAT     H1 5517   7.057   3.755   1.658 -1.2634  0.2143  1.8360
 1705WAT     H2 5518   7.087   3.903   1.653 -1.3629  0.2106  0.8641
 1706WAT      O 5519   6.422   3.666   2.673 -0.1912  0.1210  0.0628
 1706WAT     H1 5520   6.470   3.632   2.749  2.7061  0.7148 -1.3591
 1706WAT     H2 5521   6.455   3.614   2.600 -0.7939  1.4447 -1.1880
 1707WAT      O 5522   3.676   3.691   3.105  0.0756 -0.2122  0.3101
 1707WAT     H1 5523   3.717   3.718   3.023 -0.2648  1.2664  0.6064
 1707WAT     H2 5524   3.585   3.721   3.097 -0.0880 -0.5041  1.0241
 1708WAT      O 5525   3.524   5.858   5.667  0.3192  0.4514 -0.2818
 1708WAT     H1 5526   3.554   5.899   5.748 -0.3271 -1.0339  0.7366
 1708WAT     H2 5527   3.428   5.865   5.670  0.2431 -0.4377 -0.4681
 1709WAT      O 5528   2.508   4.709   0.295  0.1627  0.0441 -0.2732
 1709WAT     H1 5529   2.549   4.699   0.209 -0.5098  0.5282 -0.6638
 1709WAT     H2 5530   2.544   4.790   0.330  1.6400 -0.9548  0.6110
 1710WAT      O 5531   0.392   3.787   1.524  0.1770  0.1165 -0.4017
 1710WAT     H1 5532   0.376   3.704   1.569  0.3342  0.3006  0.0024
 1710WAT     H2 5533   0.340   3.851   1.574  0.1205  0.2760 -0.6605
 1711WAT      O 5534   2.928   7.159   5.214 -0.2706  0.1424  0.3877
 1711WAT     H1 5535   2.958   7.220   5.282  1.8126 -0.1950 -0.1718
 1711WAT     H2 5536   2.982   7.081   5.226 -0.3338 -0.1834 -1.2249
 1712WAT      O 5537   2.798   4.982   5.807 -0.0650 -0.1152  0.0656
 1712WAT     H1 5538   2.798   5.008   5.899  1.3675 -2.5946  0.8604
 1712WAT     H2 5539   2.755   5.054   5.762 -1.1639  1.0132  2.7053
 1713WAT      O 5540   7.341   3.949   5.264 -0.2016 -0.0621 -0.3151
 1713WAT     H1 5541   7.253   3.911   5.267 -0.5216  0.7088  0.6446
 1713WAT     H2 5542   7.387   3.909   5.338  0.9143 -1.9148 -1.9008
 1714WAT      O 5543   4.312   5.790   0.756 -0.4155 -0.1141 -0.0864
 1714WAT     H1 5544   4.370   5.716   0.773 -1.2221 -0.6503  0.3701
 1714WAT     H2 5545   4.241   5.781   0.820 -0.2892  1.3204  0.2820
 1715WAT      O 5546   2.797   5.184   1.394 -0.4291  0.8004 -0.3620
 1715WAT     H1 5547   2.739   5.128   1.446 -0.9657  1.5547 -0.1431
 1715WAT     H2 5548   2.885   5.151   1.414 -0.7600 -0.3014 -0.6361
 1716WAT      O 5549   3.263   4.385   0.900 -0.0610  0.2879  0.5606
 1716WAT     H1 5550   3.224   4.297   0.900  1.1280 -0.3671  3.3778
 1716WAT     H2 5551   3.357   4.369   0.904  0.4424  1.8099 -2.5377
 1717WAT      O 5552   0.989   4.883   3.912  0.0793 -0.3048 -0.6478
 1717WAT     H1 5553   0.976   4.798   3.870 -1.0193 -0.3951 -0.1697
 1717WAT     H2 5554   0.953   4.946   3.850 -2.4419 -0.5134  0.4614
 1718WAT      O 5555   3.895   0.692   4.563  0.9252  0.0825  0.0515
 1718WAT     H1 5556   3.905   0.779   4.601 -1.7659  1.0956 -1.3415
 1718WAT     H2 5557   3.825   0.652   4.615  0.0345 -0.0671 -1.2451
 1719WAT      O 5558   0.514   0.495   5.069  0.3697  0.2563  0.2617
 1719WAT     H1 5559   0.454   0.437   5.116 -0.4411  0.3384 -0.6504
 1719WAT     H2 5560   0.567   0.536   5.137  2.9964 -3.6613  0.9292
 1720WAT      O 5561   5.200   4.091   6.178 -0.2333 -0.7615 -0.1036
 1720WAT     H1 5562   5.239   4.091   6.266  0.2599  0.1405 -0.3006
 1720WAT     H2 5563   5.274   4.076   6.120 -0.3235  0.0336 -0.4349
 1721WAT      O 5564   4.376   1.217   4.308  0.2695  0.3828 -0.1197
 1721WAT     H1 5565   4.331   1.148   4.356  0.2529  1.5592  1.6428
 1721WAT     H2 5566   4.321   1.294   4.320  1.0613  1.0630 -0.7558
 1722WAT      O 5567   2.055   0.423   5.343 -0.8208 -0.1248 -0.1416
 1722WAT     H1 5568   2.021   0.398   5.429  0.3479  0.3531  0.4907
 1722WAT     H2 5569   2.077   0.340   5.301 -1.9403 -0.3914 -0.2298
 1723WAT      O 5570   0.014   1.697   1.097 -0.2473  0.3382  0.3284
 1723WAT     H1 5571  -0.069   1.653   1.116 -0.4917  0.2234 -0.9136
 1723WAT     H2 5572   0.070   1.629   1.060  0.1597  0.5759  0.4925
 1724WAT      O 5573   4.639   1.310   6.231  0.0298 -0.2894  0.1867
 1724WAT     H1 5574   4.690   1.390   6.219  0.5515 -0.9557 -2.8574
 1724WAT     H2 5575   4.552   1.341   6.255  0.3716  1.1965 -0.3938
 1725WAT      O 5576   1.628   3.312   0.736  0.8449 -0.0122  0.0468
 1725WAT     H1 5577   1.688   3.374   0.695  1.0089 -0.0462  0.2316
 1725WAT     H2 5578   1.683   3.262   0.797  0.5988  0.0624  0.3347
 1726WAT      O 5579   5.059   3.384   0.004  0.4846  0.0477 -0.1540
 1726WAT     H1 5580   5.066   3.449   0.074  0.0549  0.4122 -0.4441
 1726WAT     H2 5581   5.087   3.430  -0.075 -2.6788  0.8788 -0.9464
 1727WAT      O 5582   5.203   4.981   1.383  0.8633 -0.3028 -0.2589
 1727WAT     H1 5583   5.252   5.062   1.397 -0.1855  0.4377 -0.7480
 1727WAT     H2 5584   5.155   4.968   1.465  1.1865 -0.5464 -0.1059
 1728WAT      O 5585   2.521   2.314   4.881 -0.0000 -0.1096  0.3653
 1728WAT     H1 5586   2.438   2.358   4.865  0.6176  0.2067 -2.3322
 1728WAT     H2 5587   2.531   2.253   4.808  1.9420 -0.4445  0.8528
 1729WAT      O 5588   4.922   1.316   5.917 -0.2818 -0.1773  0.0800
 1729WAT     H1 5589   4.916   1.225   5.947  0.2932  0.6098  2.9204
 1729WAT     H2 5590   5.016   1.334   5.916 -0.2805 -0.0693 -2.2217
 1730WAT      O 5591   7.384   5.219   0.909  0.1004  0.3415 -0.1889
 1730WAT     H1 5592   7.433   5.138   0.893 -0.9005 -0.6322  1.4074
 1730WAT     H2 5593   7.415   5.249   0.994 -0.5783  0.8547 -0.1135
 1731WAT      O 5594   7.312   3.829   5.516  0.2039  0.0437  0.0026
 1731WAT     H1 5595   7.281   3.742   5.493  0.1376  0.0491  0.0736
 1731WAT     H2 5596   7.237   3.872   5.557  0.1909  0.1850 -0.1639
 1732WAT      O 5597   3.038   5.711   1.631  0.2664 -0.2182 -0.8073
 1732WAT     H1 5598   3.027   5.778   1.564  0.4885  0.6461 -0.0055
 1732WAT     H2 5599   2.984   5.742   1.704  1.5142 -0.1402  0.1215
 1733WAT      O 5600   1.694   4.555   6.161  0.0380 -0.6599  0.4062
 1733WAT     H1 5601   1.779   4.519   6.136  0.1037  0.6583 -1.4099
 1733WAT     H2 5602   1.715   4.630   6.216  0.1432  0.6969 -1.4319
 1734WAT      O 5603   1.286   5.894   5.134 -0.4886  0.3202 -0.6247
 1734WAT     H1 5604   1.327   5.902   5.220 -0.6372  0.0762 -0.5305
 1734WAT     H2 5605   1.194   5.914   5.148 -0.6406 -0.3671 -0.6001
 1735WAT      O 5606   5.227   4.157   3.138  0.5099 -0.6536 -0.2899
 1735WAT     H1 5607   5.266   4.101   3.205  0.2375  0.1716  0.5942
 1735WAT     H2 5608   5.205   4.238   3.185 -1.5285 -0.7867 -0.8893
 1736WAT      O 5609   1.750   0.168   1.141 -0.2347 -0.2698  0.6812
 1736WAT     H1 5610   1.692   0.152   1.066  0.7827 -1.7624  0.1685
 1736WAT     H2 5611   1.771   0.081   1.174  4.1214 -0.1543 -1.0832
 1737WAT      O 5612   0.616   6.026   5.759 -0.1355  0.5588 -0.4186
 1737WAT     H1 5613   0.705   5.991   5.759 -0.4192 -0.1805 -0.9755
 1737WAT     H2 5614   0.606   6.067   5.845 -0.1393 -1.6317  0.6846
 1738WAT      O 5615   2.236   0.356   4.344 -0.0513 -0.2453  0.5551
 1738WAT     H1 5616   2.162   0.412   4.370 -0.1571 -0.1195 -0.0105
 1738WAT     H2 5617   2.294   0.356   4.420  0.4778  1.4969  0.1911
 1739WAT      O 5618   3.791   0.737   2.712 -0.5672 -0.7480  0.1185
 1739WAT     H1 5619   3.777   0.823   2.752 -0.3518 -0.0599 -1.2166
 1739WAT     H2 5620   3.812   0.679   2.785  2.1753  0.9498  0.8244
 1740WAT      O 5621   5.849   6.792   5.967 -0.4381 -0.2191 -0.2851
 1740WAT     H1 5622   5.862   6.858   5.899  0.0916  0.3745  0.3709
 1740WAT     H2 5623   5.784   6.831   6.025  1.5667  0.8253  1.4109
 1741WAT      O 5624   2.870   6.546   1.590 -0.1975 -0.0806  0.1132
 1741WAT     H1 5625   2.806   6.583   1.529  0.7367  2.1812  0.3878
 1741WAT     H2 5626   2.819   6.490   1.648 -1.8104  1.0004 -0.1888
 1742WAT      O 5627   4.909   0.220   4.184 -0.3312 -0.7059  0.6419
 1742WAT     H1 5628   4.869   0.191   4.266 -0.0022 -1.2071  0.6252
 1742WAT     H2 5629   4.844   0.280   4.146 -0.0638  0.3404  1.7564
 1743WAT      O 5630   6.399   1.889   2.379 -0.2905  0.2205  0.0229
 1743WAT     H1 5631   6.392   1.966   2.436 -1.7926  0.3199 -0.2581
 1743WAT     H2 5632   6.401   1.815   2.440 -0.3793  0.4102  0.2585
 1744WAT      O 5633   5.405   6.175   0.382 -0.4479  0.0716 -0.7905
 1744WAT     H1 5634   5.488   6.220   0.368  0.0536 -1.3226 -2.7156
 1744WAT     H2 5635   5.416   6.128   0.464  0.6831 -0.1162 -1.0428
 1745WAT      O 5636   1.543   2.939   2.452 -0.0255 -0.0753  0.3487
 1745WAT     H1 5637   1.548   3.031   2.477  0.8076 -0.2745  0.9646
 1745WAT     H2 5638   1.451   2.916   2.464 -0.1178  0.5068  0.8103
 1746WAT      O 5639   1.211   4.001   0.059 -0.0765 -0.3720  0.0780
 1746WAT     H1 5640   1.300   3.980   0.031  0.2894  1.2293 -0.0989
 1746WAT     H2 5641   1.208   3.980   0.152  0.4583 -0.5187  0.0618
 1747WAT      O 5642   4.214   2.292   0.349 -0.2394 -0.5076  0.0171
 1747WAT     H1 5643   4.253   2.305   0.262 -0.8138 -2.7413 -0.6279
 1747WAT     H2 5644   4.275   2.233   0.394 -0.7500 -0.6359  0.5545
 1748WAT      O 5645   1.632   1.357   1.001  0.2006 -0.2808  0.5624
 1748WAT     H1 5646   1.712   1.401   0.971 -0.3589  0.2534 -0.1762
 1748WAT     H2 5647   1.587   1.422   1.055  0.3486 -0.6475  1.1378
 1749WAT      O 5648   3.282   0.024   2.698 -0.2373 -0.3477 -0.2136
 1749WAT     H1 5649   3.326   0.039   2.782 -2.2396 -2.8975  1.4764
 1749WAT     H2 5650   3.351   0.028   2.633  1.5959  0.6887  1.6750
 1750WAT      O 5651   4.951   6.233   2.298  0.5126  0.0584 -0.0034
 1750WAT     H1 5652   5.032   6.215   2.345  0.0025  1.7135  1.6106
 1750WAT     H2 5653   4.883   6.187   2.349  0.2043  0.2220 -0.2646
 1751WAT      O 5654   1.244   5.051   0.078  0.2235 -0.5854 -0.9006
 1751WAT     H1 5655   1.260   5.141   0.051 -2.2614  0.0693 -0.3882
 1751WAT     H2 5656   1.167   5.056   0.135  0.2281 -2.9973 -0.5871
 1752WAT      O 5657   6.071   4.211   1.655  0.2571 -0.1387 -0.0330
 1752WAT     H1 5658   6.069   4.287   1.713 -0.5335  1.0484 -1.5594
 1752WAT     H2 5659   6.062   4.136   1.714 -2.0447  1.0746  1.3082
 1753WAT      O 5660   6.759   0.952   0.251 -0.2101 -0.0667 -0.1913
 1753WAT     H1 5661   6.676   0.908   0.266  0.3746 -0.8129  1.0009
 1753WAT     H2 5662   6.804   0.899   0.185 -0.1244 -0.4214  0.1522
 1754WAT      O 5663   2.868   0.506   1.040 -0.0750  0.0012 -0.2807
 1754WAT     H1 5664   2.960   0.480   1.049 -0.3462 -1.1227 -0.5353
 1754WAT     H2 5665   2.826   0.474   1.121 -0.8831 -2.6576 -1.6067
 1755WAT      O 5666   6.794   5.995   5.496  0.4953  0.5317  0.2676
 1755WAT     H1 5667   6.738   6.062   5.457  0.6280  1.2363  1.2662
 1755WAT     H2 5668   6.750   5.971   5.577  1.0715  0.2814  0.5128
 1756WAT      O 5669   6.206   4.209   1.025  0.2714  0.2179 -0.3295
 1756WAT     H1 5670   6.285   4.176   0.985  0.1079 -1.1428  0.4027
 1756WAT     H2 5671   6.234   4.241   1.111  0.4147  2.0014 -0.9932
 1757WAT      O 5672   3.657   7.196   4.135 -0.3057 -0.0450  0.2993
 1757WAT     H1 5673   3.603   7.275   4.138 -1.5604 -0.8882  0.4942
 1757WAT     H2 5674   3.704   7.197   4.219 -0.8631  0.1254  0.6171
 1758WAT      O 5675   4.642   2.035   4.507 -0.2777 -0.4753  0.4406
 1758WAT     H1 5676   4.603   2.089   4.438 -0.2039 -0.5712  0.3235
 1758WAT     H2 5677   4.647   2.093   4.583 -0.5067 -0.4168  0.4109
 1759WAT      O 5678   2.648   2.065   5.208 -0.2086 -0.1330  0.8480
 1759WAT     H1 5679   2.739   2.091   5.198 -0.1276 -0.6990 -0.0584
 1759WAT     H2 5680   2.637   2.045   5.301  0.2247  1.2435  1.2141
 1760WAT      O 5681   6.515   6.622   4.490  0.2418 -0.2667  0.3718
 1760WAT     H1 5682   6.482   6.587   4.572  0.1382  2.1917  1.4848
 1760WAT     H2 5683   6.561   6.703   4.515 -0.2545  0.8562 -2.0207
 1761WAT      O 5684   3.678   3.491   2.795 -0.2686 -0.5430  0.1854
 1761WAT     H1 5685   3.652   3.465   2.707  2.7499 -0.8748 -0.7216
 1761WAT     H2 5686   3.657   3.415   2.850  1.9493 -2.2534 -1.1499
 1762WAT      O 5687   4.061   6.611   0.265  0.1243  0.0977 -0.5279
 1762WAT     H1 5688   3.993   6.557   0.225  1.4841 -0.7306 -1.8334
 1762WAT     H2 5689   4.106   6.651   0.190  1.3502  0.2716  0.2746
 1763WAT      O 5690   5.176   1.133   0.513 -0.1610  0.0888 -0.3467
 1763WAT     H1 5691   5.092   1.134   0.558  0.0245  1.9123  0.0198
 1763WAT     H2 5692   5.238   1.098   0.577 -0.2335  0.9204  0.1852
 1764WAT      O 5693   2.685   3.497   5.818 -0.6248  0.3792  0.2633
 1764WAT     H1 5694   2.737   3.467   5.893  0.1049 -1.8263 -1.0360
 1764WAT     H2 5695   2.670   3.590   5.835  0.6021  0.2366  2.4993
 1765WAT      O 5696   5.115   4.603   1.336 -0.1173 -0.3195 -0.2936
 1765WAT     H1 5697   5.033   4.582   1.379 -1.7713  4.0027 -0.8283
 1765WAT     H2 5698   5.182   4.584   1.401 -1.8110 -1.1163  1.2929
 1766WAT      O 5699   1.384   3.809   4.938  0.6961 -0.0916  0.2618
 1766WAT     H1 5700   1.375   3.809   5.034 -1.0861  2.1393  0.1960
 1766WAT     H2 5701   1.446   3.880   4.920  0.0407  0.3531 -0.2735
 1767WAT      O 5702   4.931   1.381   2.178  0.3390  0.3513 -0.1386
 1767WAT     H1 5703   4.849   1.332   2.170  0.2556  0.2183  1.2200
 1767WAT     H2 5704   4.946   1.417   2.091  1.3287 -3.4938 -1.7787
 1768WAT      O 5705   5.968   0.597   4.480 -0.0303  0.4213 -0.1307
 1768WAT     H1 5706   6.002   0.608   4.568 -1.6692  0.6968  0.4995
 1768WAT     H2 5707   6.011   0.518   4.447  2.6590  1.7763 -0.1483
 1769WAT      O 5708   2.733   6.681   4.085 -0.0796 -0.0255  0.1297
 1769WAT     H1 5709   2.727   6.654   4.176 -0.5698  3.0490  1.1504
 1769WAT     H2 5710   2.644   6.707   4.062 -0.1537 -1.6126 -1.5907
 1770WAT      O 5711   6.625   3.868   5.824  0.1092  0.1859  0.0527
 1770WAT     H1 5712   6.711   3.911   5.828 -0.0655  0.6337 -0.8849
 1770WAT     H2 5713   6.582   3.895   5.906  0.0468  1.7493 -0.4554
 1771WAT      O 5714   7.127   1.637   3.076 -0.4402  0.1476 -0.2769
 1771WAT     H1 5715   7.109   1.712   3.134 -0.7568 -0.8319  0.9316
 1771WAT     H2 5716   7.098   1.561   3.126 -1.4471 -0.6863 -2.0593
 1772WAT      O 5717   1.300   7.079   3.361 -0.0524 -0.0703 -0.1660
 1772WAT     H1 5718   1.389   7.093   3.393 -0.0646  0.1501 -0.2241
 1772WAT     H2 5719   1.272   6.998   3.402  0.5903 -0.7452 -1.0153
 1773WAT      O 5720   5.170   0.983   5.830  0.3688 -0.2856  0.0677
 1773WAT     H1 5721   5.217   0.902   5.809 -1.5019 -0.8150 -2.5678
 1773WAT     H2 5722   5.117   1.001   5.753 -1.7909  1.6649  1.8471
 1774WAT      O 5723   2.169   6.624   0.687  0.4816  0.4567  0.3823
 1774WAT     H1 5724   2.244   6.570   0.711 -2.6327 -3.4574  2.3814
 1774WAT     H2 5725   2.155   6.681   0.762  0.7943  0.4335  0.4591
 1775WAT      O 5726   2.449   2.136   4.348 -0.0283 -0.4446 -0.1152
 1775WAT     H1 5727   2.506   2.188   4.292  1.1908 -1.2712  0.3135
 1775WAT     H2 5728   2.437   2.054   4.300 -1.6379  0.0539 -0.6247
 1776WAT      O 5729   6.984   6.253   5.773  0.4069  0.2820 -0.5839
 1776WAT     H1 5730   6.902   6.233   5.819  0.5183 -0.4446 -0.6960
 1776WAT     H2 5731   7.034   6.306   5.836 -0.3717  1.2173 -0.7224
 1777WAT      O 5732   5.825   5.649   1.147 -0.6528  0.2156 -0.0854
 1777WAT     H1 5733   5.859   5.722   1.199 -1.7120  0.6040  0.0946
 1777WAT     H2 5734   5.800   5.688   1.063  0.5813 -0.3182 -0.7287
 1778WAT      O 5735   4.009   3.253   3.998 -0.6246  0.4602 -0.3884
 1778WAT     H1 5736   3.986   3.323   4.060 -0.8041 -1.4790  1.9078
 1778WAT     H2 5737   3.925   3.228   3.959 -0.3410  2.5827 -2.5546
 1779WAT      O 5738   4.795   4.525   5.347  0.4324  0.1623  0.2120
 1779WAT     H1 5739   4.848   4.586   5.398 -0.6052  1.2540  0.0360
 1779WAT     H2 5740   4.734   4.487   5.409  0.2732  0.2218  0.0925
 1780WAT      O 5741   0.448   1.916   3.628  0.5472 -0.1811 -0.1827
 1780WAT     H1 5742   0.406   1.993   3.667  0.2237  0.0830 -1.0217
 1780WAT     H2 5743   0.520   1.952   3.577 -0.0115 -0.3509 -1.1265
 1781WAT      O 5744   4.599   1.207   3.308 -0.4193 -0.7487  0.1417
 1781WAT     H1 5745   4.567   1.284   3.356 -1.9541 -1.5456  0.4388
 1781WAT     H2 5746   4.532   1.189   3.243 -0.2794 -2.0778  0.3371
 1782WAT      O 5747   0.213   4.715   3.194  0.5103  0.1934 -0.2627
 1782WAT     H1 5748   0.194   4.738   3.285  0.6238 -0.2020 -0.1371
 1782WAT     H2 5749   0.259   4.631   3.200 -0.0198 -0.1297 -0.7210
 1783WAT      O 5750   4.592   0.516   2.648 -0.2796 -0.3312 -0.3235
 1783WAT     H1 5751   4.676   0.527   2.692 -0.4535  0.6594 -0.2241
 1783WAT     H2 5752   4.606   0.551   2.560 -0.1118 -1.7370 -0.8879
 1784WAT      O 5753   1.000   5.185   5.516 -0.8199 -0.1420 -0.2599
 1784WAT     H1 5754   0.979   5.252   5.580 -1.6364  0.2856 -0.9490
 1784WAT     H2 5755   1.010   5.233   5.433  1.3078 -0.5319 -0.2873
 1785WAT      O 5756   4.360   4.388   4.576  0.6184  0.0720 -0.5732
 1785WAT     H1 5757   4.405   4.454   4.628  0.1455 -0.9393  1.2102
 1785WAT     H2 5758   4.421   4.314   4.574 -0.1535 -0.5974  0.2053
 1786WAT      O 5759   0.109   4.734   5.022  0.2495 -0.1658 -0.4183
 1786WAT     H1 5760   0.084   4.682   4.945  2.8247 -0.3249 -1.2306
 1786WAT     H2 5761   0.096   4.675   5.096  2.3823 -1.7767 -1.2509
 1787WAT      O 5762   6.813   3.995   3.501  0.2057 -0.3080  0.0680
 1787WAT     H1 5763   6.778   3.906   3.510 -0.6433  0.1404  1.5829
 1787WAT     H2 5764   6.750   4.040   3.446 -0.8427  0.0616  1.5037
 1788WAT      O 5765   3.503   2.239   3.503 -0.2308  0.3770  0.8941
 1788WAT     H1 5766   3.470   2.328   3.519  0.3767  0.9843 -0.9294
 1788WAT     H2 5767   3.598   2.249   3.498 -0.2218 -0.1056 -0.5801
 1789WAT      O 5768   6.027   2.397   1.341  0.0226  0.5292 -0.2324
 1789WAT     H1 5769   6.121   2.399   1.359  0.1559  1.0653 -0.9600
 1789WAT     H2 5770   5.990   2.344   1.412  0.8318  0.5674  0.2247
 1790WAT      O 5771   1.993   6.374   0.082 -0.2163  0.3201  0.5714
 1790WAT     H1 5772   2.034   6.458   0.100 -0.4101 -0.0044  2.7060
 1790WAT     H2 5773   1.902   6.384   0.109 -0.8967  0.1272 -1.4191
 1791WAT      O 5774   3.563   6.447   3.867  0.0457 -0.0840 -0.0320
 1791WAT     H1 5775   3.518   6.485   3.792 -0.5792  1.7579  1.1869
 1791WAT     H2 5776   3.497   6.391   3.909  0.1988 -0.6290 -0.5255
 1792WAT      O 5777   7.652   6.910   3.843 -0.0039 -0.0330 -0.0454
 1792WAT     H1 5778   7.587   6.880   3.780  1.7982  1.1797 -2.6736
 1792WAT     H2 5779   7.711   6.834   3.854 -1.2588 -0.8364  1.6663
 1793WAT      O 5780   7.171   4.456   2.989 -0.4235 -0.0182  0.1982
 1793WAT     H1 5781   7.265   4.465   2.998 -0.5099  0.5363  0.5945
 1793WAT     H2 5782   7.159   4.389   2.922  0.2509 -0.5653  0.6168
 1794WAT      O 5783   2.016   4.974   2.791 -0.0664 -0.5294 -0.0450
 1794WAT     H1 5784   1.974   4.995   2.708 -1.9671  0.5056  1.1128
 1794WAT     H2 5785   1.946   4.936   2.845  1.2486 -1.7188  0.9179
 1795WAT      O 5786   2.171   6.879   5.374  0.1211 -0.2486 -0.0402
 1795WAT     H1 5787   2.165   6.785   5.354  2.3774 -0.2802 -0.9202
 1795WAT     H2 5788   2.213   6.882   5.459  1.9570 -0.0817 -0.9054
 1796WAT      O 5789   2.601   1.426   6.167 -0.2987 -0.2321 -0.3338
 1796WAT     H1 5790   2.577   1.337   6.191 -2.2691  0.6063  1.1098
 1796WAT     H2 5791   2.539   1.450   6.098  0.5341 -0.1089 -1.0576
 1797WAT      O 5792   0.845   4.267   4.776  0.4917 -0.2898  0.4914
 1797WAT     H1 5793   0.800   4.329   4.719  0.9989 -0.6548 -0.3372
 1797WAT     H2 5794   0.780   4.244   4.842  0.6082  1.8630  1.4263
 1798WAT      O 5795   6.533   4.391   4.598  0.1877  0.3079  0.1435
 1798WAT     H1 5796   6.589   4.322   4.563 -1.7246 -0.5665 -1.3836
 1798WAT     H2 5797   6.524   4.371   4.691 -0.7639 -1.9081 -0.3544
 1799WAT      O 5798   3.070   1.224   4.050 -0.3348 -0.0996  0.0082
 1799WAT     H1 5799   3.139   1.191   4.108  0.7874 -1.7057 -2.0749
 1799WAT     H2 5800   2.997   1.245   4.108  1.6863  1.1893  2.2686
 1800WAT      O 5801   6.660   2.737   4.500 -0.4907 -0.1462 -0.6874
 1800WAT     H1 5802   6.698   2.654   4.527  0.0196  0.4155  0.3640
 1800WAT     H2 5803   6.596   2.713   4.432 -0.7543 -1.4472 -0.0102
 1801WAT      O 5804   1.407   1.090   1.337  0.2162  0.2326  0.0842
 1801WAT     H1 5805   1.382   1.116   1.425  2.2774  0.7425  0.5655
 1801WAT     H2 5806   1.459   1.011   1.349  0.9058  0.5644 -0.6284
 1802WAT      O 5807   0.639   5.040   0.749 -0.0979  0.1592 -0.3128
 1802WAT     H1 5808   0.649   4.951   0.784  2.7611  0.4764 -0.1178
 1802WAT     H2 5809   0.640   5.096   0.826 -0.7125  0.4621 -0.5182
 1803WAT      O 5810   2.918   6.286   0.812 -0.4273  0.5997  0.3484
 1803WAT     H1 5811   2.941   6.375   0.785 -0.5175  0.6601  0.4697
 1803WAT     H2 5812   2.869   6.297   0.893 -1.3150  0.5102 -0.1570
 1804WAT      O 5813   1.983   5.206   0.156  0.1493  0.3922 -0.6303
 1804WAT     H1 5814   1.987   5.291   0.199 -0.1269 -0.0871  0.3853
 1804WAT     H2 5815   1.889   5.186   0.150  0.2291 -0.9999  1.5930
 1805WAT      O 5816   2.239   1.720   1.299 -0.2914  0.1971  0.0334
 1805WAT     H1 5817   2.263   1.787   1.364  0.7501  2.2429 -2.3145
 1805WAT     H2 5818   2.176   1.764   1.242 -0.0225 -1.0231 -1.2494
 1806WAT      O 5819   1.092   1.469   4.833 -0.5598 -0.2965  0.6991
 1806WAT     H1 5820   1.174   1.499   4.872 -0.9172  0.4189  0.9167
 1806WAT     H2 5821   1.060   1.402   4.892  1.2014 -2.5807 -0.7594
 1807WAT      O 5822   4.084   7.063   6.123  0.2977 -0.1194 -0.3066
 1807WAT     H1 5823   4.147   6.993   6.138  1.8046  1.6334  2.2247
 1807WAT     H2 5824   4.057   7.091   6.211 -3.5026 -0.2397 -1.2513
 1808WAT      O 5825   0.606   3.144   4.912 -0.3916  0.3551  0.3532
 1808WAT     H1 5826   0.669   3.203   4.953 -0.9201  1.1430  0.0594
 1808WAT     H2 5827   0.535   3.136   4.975  0.2014 -0.9277  0.8965
 1809WAT      O 5828   3.394   2.496   2.273  0.4006  0.4038 -0.0571
 1809WAT     H1 5829   3.314   2.511   2.222 -1.4861  0.7252  2.7901
 1809WAT     H2 5830   3.381   2.411   2.313  1.4802  0.4938  0.5238
 1810WAT      O 5831   1.286   2.547   6.097  0.0229 -0.3119 -0.0689
 1810WAT     H1 5832   1.249   2.597   6.024  1.7206 -1.3257 -1.7073
 1810WAT     H2 5833   1.371   2.587   6.112 -0.0293 -0.5510  0.9389
 1811WAT      O 5834   4.717   2.374   2.865 -0.3787 -0.0241  0.0101
 1811WAT     H1 5835   4.627   2.346   2.879  0.4141 -2.3016  1.0424
 1811WAT     H2 5836   4.722   2.460   2.905 -2.1432  0.2711 -0.3185
 1812WAT      O 5837   5.178   5.471   3.390 -0.1532 -0.0936 -0.1561
 1812WAT     H1 5838   5.234   5.440   3.460 -2.0049  0.1605  1.5392
 1812WAT     H2 5839   5.181   5.566   3.396 -0.7580 -0.0764 -0.0308
 1813WAT      O 5840   0.975   7.001   1.752 -0.3668  0.6362  0.0241
 1813WAT     H1 5841   0.905   6.936   1.763 -0.3416  0.5939 -0.0683
 1813WAT     H2 5842   0.999   6.995   1.659  1.4142 -1.0406  0.5125
 1814WAT      O 5843   5.281   1.195   5.974  0.5438 -0.0954 -0.1758
 1814WAT     H1 5844   5.372   1.183   5.949  0.2012 -1.0502 -1.0396
 1814WAT     H2 5845   5.231   1.145   5.910 -0.4452 -1.9859  1.9199
 1815WAT      O 5846   4.071   1.967   1.000  0.1569  0.0083 -0.9982
 1815WAT     H1 5847   3.981   1.969   0.968  0.0420  0.1334 -0.6781
 1815WAT     H2 5848   4.077   1.887   1.052  0.1051  0.2055 -0.6797
 1816WAT      O 5849   1.951   6.364   1.047  0.1165  0.6953  0.6157
 1816WAT     H1 5850   2.008   6.326   1.115 -0.2093 -0.6275  0.1843
 1816WAT     H2 5851   1.896   6.427   1.094 -0.1496 -0.2486  1.6127
 1817WAT      O 5852   0.966   3.342   3.937  0.4100 -0.5871  0.1346
 1817WAT     H1 5853   1.052   3.302   3.924  0.1272 -0.8794 -0.9104
 1817WAT     H2 5854   0.911   3.271   3.969 -0.1140 -1.0922 -1.8025
 1818WAT      O 5855   2.207   2.261   5.998  0.0846  0.5291 -0.0125
 1818WAT     H1 5856   2.227   2.225   6.084  2.0793 -0.0728 -0.6701
 1818WAT     H2 5857   2.130   2.317   6.013 -0.2814 -0.4047  1.9153
 1819WAT      O 5858   5.107   2.689   1.352 -0.0599  0.4092  0.1413
 1819WAT     H1 5859   5.155   2.607   1.364 -1.9989 -1.1127 -1.6708
 1819WAT     H2 5860   5.103   2.728   1.439  1.9897 -0.7780  0.8326
 1820WAT      O 5861   7.070   4.678   6.167 -0.1322 -0.3096  0.4412
 1820WAT     H1 5862   7.148   4.722   6.133  0.6489 -0.9065  1.3938
 1820WAT     H2 5863   7.094   4.652   6.256 -1.5932 -0.0871  0.9280
 1821WAT      O 5864   4.123   3.888   3.904 -0.8255 -0.4563 -0.2608
 1821WAT     H1 5865   4.083   3.915   3.986  0.5520  1.9770 -0.2974
 1821WAT     H2 5866   4.051   3.892   3.840 -1.2211  0.8932  0.2246
 1822WAT      O 5867   2.467   6.671   4.890 -0.2182  0.6841  0.0213
 1822WAT     H1 5868   2.447   6.613   4.964  0.5680  1.3602  0.7802
 1822WAT     H2 5869   2.435   6.623   4.813 -1.5341  0.2012  0.8307
 1823WAT      O 5870   6.101   6.559   3.481  0.1521 -0.2008  0.2815
 1823WAT     H1 5871   6.009   6.537   3.495 -0.6842  2.6320 -0.2132
 1823WAT     H2 5872   6.127   6.605   3.560  0.5148  0.8067 -0.4073
 1824WAT      O 5873   5.533   6.844   0.095  0.5668 -0.3012 -0.0368
 1824WAT     H1 5874   5.467   6.804   0.039  1.9204 -1.6723 -0.7553
 1824WAT     H2 5875   5.501   6.829   0.184 -1.2514  1.2625 -0.3702
 1825WAT      O 5876   2.790   6.661   5.034  0.2474  0.0471  0.3087
 1825WAT     H1 5877   2.802   6.574   5.073 -0.5664  0.3567  1.3052
 1825WAT     H2 5878   2.697   6.681   5.050 -0.3230 -0.0771 -2.4115
 1826WAT      O 5879   3.399   4.964   0.096  0.5233  0.2669 -0.5553
 1826WAT     H1 5880   3.308   4.958   0.124  0.8568  1.2912  0.9128
 1826WAT     H2 5881   3.414   5.058   0.085  1.2581  0.0712 -1.3210
 1827WAT      O 5882   2.582   0.762   6.223 -0.1260 -0.3545 -0.0599
 1827WAT     H1 5883   2.614   0.763   6.313  0.4942 -1.3093 -0.2477
 1827WAT     H2 5884   2.562   0.670   6.206  0.5295 -0.3158 -1.1473
 1828WAT      O 5885   7.538   5.249   1.168  0.0020 -0.4466 -0.2074
 1828WAT     H1 5886   7.487   5.186   1.220 -1.0975  2.0800  2.0057
 1828WAT     H2 5887   7.629   5.224   1.183 -0.3833 -1.1693  1.0604
 1829WAT      O 5888   0.553   3.431   5.446  0.1485  0.1782 -0.4213
 1829WAT     H1 5889   0.543   3.340   5.416 -0.7969  0.6413 -1.5380
 1829WAT     H2 5890   0.464   3.462   5.459  0.3216  1.7231 -2.4433
 1830WAT      O 5891   7.250   4.318   4.946  0.2749 -0.1293  0.5968
 1830WAT     H1 5892   7.277   4.379   5.015  2.8905 -0.3413 -0.1182
 1830WAT     H2 5893   7.180   4.266   4.986 -0.2907  1.6466  2.0658
 1831WAT      O 5894   5.693   2.037   4.860 -0.3864  0.2248 -0.3319
 1831WAT     H1 5895   5.758   1.977   4.896 -0.3744 -0.1447 -0.9443
 1831WAT     H2 5896   5.723   2.124   4.887  0.8969  0.1463 -1.3885
 1832WAT      O 5897   6.613   5.015   3.113  0.2529 -0.0562 -0.1950
 1832WAT     H1 5898   6.575   4.935   3.079 -0.8151  0.3188  0.0582
 1832WAT     H2 5899   6.538   5.067   3.141  0.9798  0.5080  0.8058
 1833WAT      O 5900   2.508   0.730   1.023 -0.1572 -0.7097 -0.4348
 1833WAT     H1 5901   2.512   0.634   1.024  0.7494 -0.6753  0.0587
 1833WAT     H2 5902   2.425   0.751   1.067 -0.5154 -1.2660 -0.8317
 1834WAT      O 5903   2.491   4.129   2.333  0.1515  0.0157  0.7528
 1834WAT     H1 5904   2.544   4.125   2.253  1.6876  2.1307  1.5651
 1834WAT     H2 5905   2.452   4.042   2.340  0.8847 -0.5932 -1.6669
 1835WAT      O 5906   1.079   2.920   5.138 -0.3022  1.0118 -0.7410
 1835WAT     H1 5907   1.067   2.853   5.070  0.9192  1.1016 -1.0778
 1835WAT     H2 5908   1.059   3.003   5.095  1.1085  1.1346 -1.2160
 1836WAT      O 5909   5.545   0.758   4.677 -0.2427 -0.0706  0.5192
 1836WAT     H1 5910   5.483   0.695   4.640  1.3036 -1.5076  0.2481
 1836WAT     H2 5911   5.536   0.750   4.771  0.3509 -1.1756  0.4988
 1837WAT      O 5912   6.721   6.363   2.399  0.0508 -0.5446 -0.1586
 1837WAT     H1 5913   6.793   6.414   2.362  0.2466 -0.6962  0.0115
 1837WAT     H2 5914   6.677   6.324   2.324 -0.5683  0.4880 -0.3547
 1838WAT      O 5915   1.767   0.817   0.408  0.3049  0.1821  0.3047
 1838WAT     H1 5916   1.739   0.736   0.452  0.9416 -0.0886  0.2229
 1838WAT     H2 5917   1.717   0.886   0.451 -2.9409 -0.5496 -1.9486
 1839WAT      O 5918   6.668   4.926   4.518 -0.0093  0.2022  0.0724
 1839WAT     H1 5919   6.618   4.996   4.561  0.0221  0.6786 -0.6430
 1839WAT     H2 5920   6.724   4.890   4.586  0.0357  0.9363  0.4261
 1840WAT      O 5921   0.240   3.124   6.162  0.4910 -0.0545  0.0692
 1840WAT     H1 5922   0.199   3.194   6.111  2.1125  1.9063  1.3578
 1840WAT     H2 5923   0.289   3.074   6.097 -0.3265  0.2352 -0.8019
 1841WAT      O 5924   2.577   3.839   5.454  0.0434  0.2803 -0.0592
 1841WAT     H1 5925   2.572   3.752   5.492 -0.4691 -0.6429 -2.1393
 1841WAT     H2 5926   2.562   3.826   5.360  0.6472  2.5178 -0.5295
 1842WAT      O 5927   3.527   0.338   5.889 -0.5386 -0.0752 -0.0733
 1842WAT     H1 5928   3.560   0.423   5.918 -1.3594 -0.6334  2.7782
 1842WAT     H2 5929   3.582   0.274   5.935 -0.6200 -1.1067 -1.3500
 1843WAT      O 5930   5.302   6.318   4.092 -0.0660  0.1464 -0.5600
 1843WAT     H1 5931   5.206   6.311   4.098 -0.0465  0.8505  0.8783
 1843WAT     H2 5932   5.316   6.393   4.034 -0.4062  0.8252  0.2227
 1844WAT      O 5933   4.536   6.373   1.412  0.6579 -0.1883 -0.3197
 1844WAT     H1 5934   4.469   6.310   1.385 -1.2920 -0.1786  3.7429
 1844WAT     H2 5935   4.596   6.321   1.466  1.2565  0.7120 -0.1038
 1845WAT      O 5936   6.302   5.104   5.620  0.2056 -0.1293  0.3644
 1845WAT     H1 5937   6.281   5.120   5.712 -1.3021 -0.7315  0.1575
 1845WAT     H2 5938   6.303   5.008   5.612 -2.8922 -0.1542 -0.8703
 1846WAT      O 5939   1.565   2.604   2.665  0.0174 -0.0995  0.5015
 1846WAT     H1 5940   1.481   2.624   2.626 -1.5070 -2.0692  2.4897
 1846WAT     H2 5941   1.602   2.689   2.688 -1.4236  0.8118 -0.4308
 1847WAT      O 5942   1.561   3.030   2.149  0.3955  0.1204 -0.2088
 1847WAT     H1 5943   1.567   3.026   2.244  0.0421  2.2554 -0.0472
 1847WAT     H2 5944   1.579   3.122   2.127  1.8926 -0.5962 -2.3322
 1848WAT      O 5945   7.605   0.903   0.856 -0.3331  0.4692 -0.2062
 1848WAT     H1 5946   7.692   0.919   0.891 -0.9359  0.6363  1.3099
 1848WAT     H2 5947   7.547   0.959   0.908 -1.6593 -1.5508  0.6139
 1849WAT      O 5948   3.350   4.255   5.266  0.0944  0.5598 -0.1540
 1849WAT     H1 5949   3.260   4.284   5.248  0.4153  1.8382  0.1794
 1849WAT     H2 5950   3.344   4.208   5.349 -0.4356 -0.3027 -0.6692
 1850WAT      O 5951   2.888   5.530   5.449  0.2745 -0.3979  0.7787
 1850WAT     H1 5952   2.924   5.615   5.473  1.1481 -0.6387  0.3907
 1850WAT     H2 5953   2.943   5.467   5.497  1.1333 -0.8260 -0.6921
 1851WAT      O 5954   4.035   0.956   2.867  0.6422 -0.0372 -0.2505
 1851WAT     H1 5955   4.074   1.040   2.890 -1.2096  0.6135  0.6797
 1851WAT     H2 5956   4.046   0.902   2.945  0.5107 -0.1534 -0.3111
 1852WAT      O 5957   2.192   0.168   5.701 -0.3556 -0.2264  0.3748
 1852WAT     H1 5958   2.165   0.149   5.791 -0.3562 -0.2966  0.3590
 1852WAT     H2 5959   2.263   0.232   5.711 -0.0548 -0.5641  0.4439
 1853WAT      O 5960   1.654   2.366   2.571 -0.1458 -0.2221  0.0148
 1853WAT     H1 5961   1.621   2.451   2.599  0.9980  0.3945 -0.4133
 1853WAT     H2 5962   1.687   2.325   2.651  0.4491  0.2846  0.0346
 1854WAT      O 5963   4.435   3.511   5.045  0.3236  0.4488 -0.7948
 1854WAT     H1 5964   4.400   3.423   5.036 -2.2444  1.4131 -1.0910
 1854WAT     H2 5965   4.422   3.533   5.137 -0.7318  1.1525 -1.1027
 1855WAT      O 5966   5.189   2.508   5.464  0.3818  0.4763  0.4251
 1855WAT     H1 5967   5.145   2.577   5.513 -0.9941  1.1391 -1.6035
 1855WAT     H2 5968   5.236   2.554   5.394 -0.0640 -0.5875 -0.6032
 1856WAT      O 5969   2.700   4.842   2.484 -0.3059  0.4846  0.4740
 1856WAT     H1 5970   2.629   4.778   2.496 -2.0435  2.4665  1.3524
 1856WAT     H2 5971   2.717   4.876   2.571  0.6792  1.1527  0.0412
 1857WAT      O 5972   4.480   2.150   2.401 -0.5595 -0.0242  0.3248
 1857WAT     H1 5973   4.527   2.093   2.341 -1.4402 -1.0826  0.6050
 1857WAT     H2 5974   4.546   2.211   2.433  0.1046  0.0120 -1.0437
 1858WAT      O 5975   3.229   5.770   0.171 -0.8564  0.1855  0.0902
 1858WAT     H1 5976   3.229   5.856   0.213 -0.9245 -0.2517  1.0106
 1858WAT     H2 5977   3.218   5.789   0.078 -2.0276  1.1212  0.3947
 1859WAT      O 5978   4.211   2.004   3.720  0.2403  0.5142  0.1462
 1859WAT     H1 5979   4.203   2.028   3.812 -0.4818 -2.1059  0.8543
 1859WAT     H2 5980   4.123   1.973   3.696  0.8567 -0.5224 -0.8778
 1860WAT      O 5981   4.340   5.216   2.562  0.2033  0.6662  0.8150
 1860WAT     H1 5982   4.288   5.168   2.626 -1.4063  2.8775  1.2798
 1860WAT     H2 5983   4.403   5.266   2.614 -0.9074  2.2344  0.6984
 1861WAT      O 5984   4.656   2.092   2.786  0.7943 -0.1103 -0.0909
 1861WAT     H1 5985   4.688   2.039   2.713 -0.8326  1.3742 -2.0110
 1861WAT     H2 5986   4.703   2.176   2.777  0.9539 -0.0790  0.9134
 1862WAT      O 5987   7.513   0.287   1.465 -0.1361 -0.2848  0.5627
 1862WAT     H1 5988   7.497   0.282   1.560 -0.9595 -2.5547  0.3690
 1862WAT     H2 5989   7.431   0.257   1.426  0.9990 -1.8167 -0.7726
 1863WAT      O 5990   1.504   6.205   0.838 -0.0749 -0.1515  0.0868
 1863WAT     H1 5991   1.474   6.202   0.747  1.5697  2.8913 -0.6763
 1863WAT     H2 5992   1.599   6.198   0.832  0.0115 -0.7979  1.7137
 1864WAT      O 5993   0.621   3.926   1.419 -0.0416 -0.6831  0.1444
 1864WAT     H1 5994   0.556   3.896   1.483  0.8884 -3.8456 -0.2027
 1864WAT     H2 5995   0.692   3.962   1.473  0.0299 -1.8028  0.8270
 1865WAT      O 5996   4.237   2.136   1.777 -0.1054  0.8564  0.2995
 1865WAT     H1 5997   4.190   2.079   1.838  0.9449 -0.8706 -0.4296
 1865WAT     H2 5998   4.194   2.221   1.785 -0.6743  0.4060  2.6363
 1866WAT      O 5999   2.256   0.989   6.193 -0.0606  0.0344  0.2651
 1866WAT     H1 6000   2.204   0.995   6.113  0.1564  0.2190  0.1345
 1866WAT     H2 6001   2.197   0.950   6.258  0.0386 -0.9378 -0.2159
 1867WAT      O 6002   5.394   6.418   5.282  0.1957 -0.1613 -0.1668
 1867WAT     H1 6003   5.317   6.406   5.338  1.5642 -0.6206  1.6930
 1867WAT     H2 6004   5.412   6.330   5.248 -0.1685 -0.0236 -0.7367
 1868WAT      O 6005   3.112   0.999   4.904 -0.3107 -0.2977  0.3418
 1868WAT     H1 6006   3.047   0.960   4.962 -1.0246  0.7382  0.2664
 1868WAT     H2 6007   3.155   1.065   4.958 -1.5591  1.2781 -0.4901
 1869WAT      O 6008   4.174   3.539   5.923 -0.1461 -0.1967  0.4031
 1869WAT     H1 6009   4.199   3.451   5.952  0.4164 -0.4367 -0.7304
 1869WAT     H2 6010   4.150   3.585   6.003  2.7483 -0.3417  1.5018
 1870WAT      O 6011   6.306   1.794   0.151  0.1713 -0.1718 -0.2432
 1870WAT     H1 6012   6.280   1.883   0.172  1.0228  0.1414 -0.4660
 1870WAT     H2 6013   6.389   1.782   0.197 -0.2817 -1.1011  0.3698
 1871WAT      O 6014   6.699   2.527   6.071 -0.0006 -0.0673  0.2990
 1871WAT     H1 6015   6.651   2.571   6.142  0.2370  0.2357  0.2741
 1871WAT     H2 6016   6.720   2.441   6.107  0.7979  0.3621  0.9002
 1872WAT      O 6017   3.528   4.934   0.614 -0.3573 -0.0090 -0.1834
 1872WAT     H1 6018   3.568   4.972   0.536  1.0069 -1.2667 -0.1392
 1872WAT     H2 6019   3.525   4.840   0.597 -2.6209 -0.0695  0.1640
 1873WAT      O 6020   0.046   1.797   4.641  0.5810 -0.2752 -0.8479
 1873WAT     H1 6021   0.083   1.839   4.564 -0.3051 -0.1820 -1.2339
 1873WAT     H2 6022  -0.041   1.768   4.613  0.1207  0.0516  0.2067
 1874WAT      O 6023   0.862   6.227   3.090 -0.6449 -0.0132  0.5416
 1874WAT     H1 6024   0.782   6.244   3.139 -0.8497  0.7109 -0.0177
 1874WAT     H2 6025   0.911   6.309   3.095 -0.6573  0.0730 -0.4208
 1875WAT      O 6026   7.386   2.377   4.521 -0.0576  0.5180  0.2358
 1875WAT     H1 6027   7.456   2.441   4.536  0.6610 -0.3470  0.6576
 1875WAT     H2 6028   7.338   2.374   4.603  0.9538 -0.7023  0.8251
 1876WAT      O 6029   7.176   3.202   5.106  0.1627 -0.0174  0.8160
 1876WAT     H1 6030   7.102   3.146   5.128  0.1018 -0.5696 -0.6906
 1876WAT     H2 6031   7.137   3.282   5.071  0.2671  0.0542  0.8622
 1877WAT      O 6032   3.585   3.835   1.217  0.4641  0.2102 -0.2614
 1877WAT     H1 6033   3.625   3.821   1.302 -2.6691 -0.3216  1.2803
 1877WAT     H2 6034   3.495   3.803   1.227 -0.3432  1.0589 -3.4760
 1878WAT      O 6035   3.382   0.929   4.023 -0.1569  0.4232 -0.1658
 1878WAT     H1 6036   3.306   0.892   3.980  0.0466 -0.0828 -0.0931
 1878WAT     H2 6037   3.347   1.001   4.076 -0.4898  0.6250 -0.6513
 1879WAT      O 6038   1.036   2.464   2.766 -0.5451 -0.3175  0.1574
 1879WAT     H1 6039   1.015   2.403   2.837 -0.1601  0.0032  0.5503
 1879WAT     H2 6040   1.101   2.523   2.804  0.3456 -0.6986 -0.7301
 1880WAT      O 6041   7.579   1.272   5.231 -0.3886  0.5860  0.0393
 1880WAT     H1 6042   7.535   1.334   5.290  1.8572  1.7927  0.5442
 1880WAT     H2 6043   7.633   1.326   5.175  1.2591 -0.8668  0.1380
 1881WAT      O 6044   5.804   5.181   2.979 -0.0805 -0.4345  0.6874
 1881WAT     H1 6045   5.820   5.092   3.010 -1.2136 -0.1681  2.1267
 1881WAT     H2 6046   5.757   5.224   3.050  0.8521  1.4771  0.2369
 1882WAT      O 6047   6.361   1.749   3.022 -0.3693 -0.3597  0.3526
 1882WAT     H1 6048   6.335   1.693   2.949 -0.4215  0.8643 -0.6022
 1882WAT     H2 6049   6.417   1.815   2.982 -0.4963  0.4079  1.4155
 1883WAT      O 6050   3.234   4.578   3.641  0.3894 -0.1459  0.1078
 1883WAT     H1 6051   3.198   4.513   3.700  2.5252 -1.6807 -0.1609
 1883WAT     H2 6052   3.165   4.644   3.633 -1.4831 -1.8550  1.1678
 1884WAT      O 6053   7.015   1.155   2.763  0.1437 -0.0282  1.0590
 1884WAT     H1 6054   6.961   1.215   2.815  0.7390 -0.2352  1.9467
 1884WAT     H2 6055   7.084   1.127   2.823  1.0263 -0.0639  0.0658
 1885WAT      O 6056   0.493   6.028   4.258  0.4578 -0.5045  0.6035
 1885WAT     H1 6057   0.502   5.937   4.283  1.8774 -0.6141 -0.1886
 1885WAT     H2 6058   0.582   6.056   4.235  0.2669  1.4366  2.0057
 1886WAT      O 6059   7.297   5.431   0.221  0.0273  0.3721  0.3326
 1886WAT     H1 6060   7.217   5.457   0.267  0.2006  3.0145 -0.6820
 1886WAT     H2 6061   7.367   5.461   0.279  0.2344  1.9435 -0.6673
 1887WAT      O 6062   1.255   2.093   2.378 -0.1219  0.1776 -1.1765
 1887WAT     H1 6063   1.317   2.167   2.378  2.6017 -1.9525 -0.2941
 1887WAT     H2 6064   1.193   2.114   2.448  0.0742  1.9883 -1.4944
 1888WAT      O 6065   7.444   7.214   3.240 -0.6739 -0.4259 -0.1918
 1888WAT     H1 6066   7.439   7.257   3.325 -2.2774 -0.9532  0.0156
 1888WAT     H2 6067   7.470   7.124   3.260 -0.1076 -0.3047 -0.3614
 1889WAT      O 6068   2.537   5.653   5.549 -0.0355 -0.2501  0.0524
 1889WAT     H1 6069   2.452   5.649   5.592 -1.0056  0.3627 -1.7047
 1889WAT     H2 6070   2.596   5.690   5.615 -1.0901 -0.7650  1.3231
 1890WAT      O 6071   4.024   5.837   2.831 -0.0123  0.2576 -0.4281
 1890WAT     H1 6072   4.089   5.809   2.894 -1.4177  0.2288  1.0833
 1890WAT     H2 6073   3.971   5.902   2.878 -2.2382 -1.0964 -0.9081
 1891WAT      O 6074   5.003   2.871   3.371 -0.0777  0.0551 -0.0841
 1891WAT     H1 6075   5.047   2.787   3.383 -0.1360  0.0583  0.1630
 1891WAT     H2 6076   5.071   2.936   3.390 -0.1751  0.0602  0.2513
 1892WAT      O 6077   6.757   4.962   3.779 -0.3633  0.0725  0.2933
 1892WAT     H1 6078   6.705   5.006   3.846 -0.1309  0.8796 -0.0424
 1892WAT     H2 6079   6.830   4.923   3.826  0.5747  1.8117  0.3842
 1893WAT      O 6080   4.132   1.494   0.476  0.1269  0.0691 -0.2046
 1893WAT     H1 6081   4.123   1.559   0.546 -2.3074  0.7819 -1.0415
 1893WAT     H2 6082   4.102   1.412   0.515 -1.0738  0.4306 -0.3122
 1894WAT      O 6083   6.090   5.359   3.634 -0.3804  0.4509  0.8287
 1894WAT     H1 6084   6.076   5.268   3.661 -2.4319 -0.7289 -3.3894
 1894WAT     H2 6085   6.175   5.358   3.590 -1.7748 -0.4203 -2.1066
 1895WAT      O 6086   6.859   6.203   1.765  0.1240 -0.3855 -0.3739
 1895WAT     H1 6087   6.799   6.262   1.720 -0.4643  1.7740  2.9071
 1895WAT     H2 6088   6.927   6.260   1.801  0.8181 -1.9979  1.0362
 1896WAT      O 6089   7.254   1.888   1.520 -0.5371 -0.1901  0.2342
 1896WAT     H1 6090   7.182   1.833   1.551 -0.9286  0.6338  0.8245
 1896WAT     H2 6091   7.272   1.856   1.432 -1.5928 -0.4393  0.0898
 1897WAT      O 6092   3.353   1.605   1.116 -0.2336 -0.6056  0.0591
 1897WAT     H1 6093   3.401   1.667   1.171  0.7893 -0.9282 -0.4455
 1897WAT     H2 6094   3.279   1.578   1.169 -0.9423  1.3514  0.1563
 1898WAT      O 6095   5.831   1.576   1.202 -0.3364  0.9748 -0.2132
 1898WAT     H1 6096   5.742   1.552   1.227 -0.7755  0.8988 -1.7557
 1898WAT     H2 6097   5.863   1.502   1.151  0.5724  1.0643  0.2009
 1899WAT      O 6098   2.489   4.063   5.207  0.1696 -0.3998  0.2869
 1899WAT     H1 6099   2.532   4.135   5.161 -0.7195  0.3274  0.5454
 1899WAT     H2 6100   2.478   4.096   5.297  1.1625 -1.4790  0.8267
 1900WAT      O 6101   3.734   6.497   2.934 -0.4532 -0.4760 -0.1351
 1900WAT     H1 6102   3.815   6.474   2.981  0.8716 -1.2321 -2.5911
 1900WAT     H2 6103   3.749   6.465   2.845 -3.4883 -0.5996 -0.6863
 1901WAT      O 6104   0.413   2.834   4.108  0.5500  0.2179  0.3597
 1901WAT     H1 6105   0.355   2.887   4.163  1.9958 -0.0981  2.3336
 1901WAT     H2 6106   0.435   2.759   4.163  2.0224 -0.1742 -0.7034
 1902WAT      O 6107   2.188   5.168   5.817 -0.0948  0.0756 -0.0159
 1902WAT     H1 6108   2.241   5.129   5.886 -0.2942 -0.5844 -0.2331
 1902WAT     H2 6109   2.127   5.227   5.863 -0.1964 -0.3252  0.3657
 1903WAT      O 6110   4.755   3.367   4.580 -0.0980 -0.6858  0.0625
 1903WAT     H1 6111   4.738   3.317   4.660 -0.6224 -0.4654  0.0966
 1903WAT     H2 6112   4.717   3.453   4.598  2.0455  0.2237  0.5581
 1904WAT      O 6113   3.232   4.350   1.269  0.3746 -0.7514  0.4190
 1904WAT     H1 6114   3.219   4.256   1.259  2.2427 -1.0302  0.3077
 1904WAT     H2 6115   3.299   4.372   1.204  0.2177  0.5904  0.6821
 1905WAT      O 6116   5.341   0.077   0.156 -0.4826  0.5150 -0.4475
 1905WAT     H1 6117   5.281   0.075   0.231  0.9778  1.1261  0.7898
 1905WAT     H2 6118   5.405   0.009   0.175 -0.0898  0.6915 -1.1291
 1906WAT      O 6119   2.461   5.013   2.778  0.3863  0.4741 -0.6572
 1906WAT     H1 6120   2.550   4.990   2.750  1.4521  1.8271  1.3749
 1906WAT     H2 6121   2.466   5.107   2.796 -0.2779 -0.1032  3.3175
 1907WAT      O 6122   4.875   5.704   1.329 -0.5360 -0.0745 -0.2967
 1907WAT     H1 6123   4.850   5.636   1.391 -0.6004 -0.2832 -0.5497
 1907WAT     H2 6124   4.924   5.768   1.381  1.8764 -1.6101 -0.5423
 1908WAT      O 6125   2.056   3.731   6.142  0.8401 -0.3452 -0.2681
 1908WAT     H1 6126   1.970   3.747   6.181  0.2967 -2.3274 -0.5409
 1908WAT     H2 6127   2.072   3.638   6.157  3.0542  0.0214 -0.0491
 1909WAT      O 6128   6.654   0.694   4.358 -0.5830  0.1058 -0.3536
 1909WAT     H1 6129   6.639   0.785   4.385 -2.2686 -1.2782  4.4097
 1909WAT     H2 6130   6.568   0.661   4.334 -1.1056 -1.3662  2.9471
 1910WAT      O 6131   3.117   0.521   1.555  0.6873  0.2146 -0.8034
 1910WAT     H1 6132   3.212   0.514   1.569  0.7617  0.2261 -1.2615
 1910WAT     H2 6133   3.078   0.479   1.631  1.0517  0.9740 -0.1799
 1911WAT      O 6134   3.840   4.684   3.415  0.1184  0.1672 -0.1590
 1911WAT     H1 6135   3.821   4.659   3.506 -1.1642  0.9591 -0.1896
 1911WAT     H2 6136   3.768   4.741   3.390  1.4821  1.5828 -1.0273
 1912WAT      O 6137   0.057   4.741   0.379 -0.1177 -0.6260 -0.0809
 1912WAT     H1 6138   0.018   4.827   0.366  0.7698 -0.1302  0.4282
 1912WAT     H2 6139  -0.012   4.689   0.420 -0.2074  0.2863  0.9837
 1913WAT      O 6140   3.318   2.803   4.425 -0.5083 -0.4124  0.0744
 1913WAT     H1 6141   3.371   2.865   4.376  0.9576 -1.4651  0.2652
 1913WAT     H2 6142   3.232   2.808   4.384 -0.6375  2.1870  0.4975
 1914WAT      O 6143   4.338   0.655   1.402  0.3695 -0.2358  0.1544
 1914WAT     H1 6144   4.297   0.681   1.484  1.1681 -1.5304  0.9878
 1914WAT     H2 6145   4.335   0.560   1.402 -0.2634 -0.2599 -1.6769
 1915WAT      O 6146   2.157   2.348   3.657 -0.4045  0.1596  0.3550
 1915WAT     H1 6147   2.128   2.385   3.573  1.7487  2.7071  0.6030
 1915WAT     H2 6148   2.076   2.321   3.700 -1.5914 -1.4163 -2.5378
 1916WAT      O 6149   0.216   6.010   5.295 -0.5802 -0.0059  0.5226
 1916WAT     H1 6150   0.146   5.973   5.350 -0.9563  0.9457  0.7024
 1916WAT     H2 6151   0.175   6.082   5.249  0.2845  0.5643  0.6208
 1917WAT      O 6152   5.069   5.696   5.820  0.1418  0.4178 -0.1854
 1917WAT     H1 6153   5.109   5.612   5.798  1.2098 -0.0184  2.8809
 1917WAT     H2 6154   5.136   5.742   5.869 -1.2030  2.1268  0.1518
 1918WAT      O 6155   4.568   1.949   0.398 -0.3772 -0.5516  0.0317
 1918WAT     H1 6156   4.616   1.916   0.321 -0.4548 -0.6988  0.0471
 1918WAT     H2 6157   4.520   1.873   0.431  1.0969 -0.9758  1.3384
 1919WAT      O 6158   6.372   1.809   1.328 -0.4075 -0.1225 -0.0663
 1919WAT     H1 6159   6.448   1.762   1.294 -1.1777 -0.1044 -1.9497
 1919WAT     H2 6160   6.340   1.755   1.401 -0.4581 -1.8409 -1.2956
 1920WAT      O 6161   1.254   2.347   0.340  0.4051 -0.5411  0.4002
 1920WAT     H1 6162   1.219   2.272   0.293  1.8752  0.6225 -2.9234
 1920WAT     H2 6163   1.347   2.347   0.317  0.6902  1.5243  1.3723
 1921WAT      O 6164   1.209   6.396   5.024  0.1564 -0.3360 -0.7063
 1921WAT     H1 6165   1.241   6.335   4.958 -2.1818 -0.9137 -1.4017
 1921WAT     H2 6166   1.158   6.461   4.974 -1.1681 -0.4515  0.4214
 1922WAT      O 6167   5.654   3.265   3.792  0.0987 -0.0537  0.3020
 1922WAT     H1 6168   5.719   3.263   3.862  0.3727  0.1341  0.0600
 1922WAT     H2 6169   5.583   3.210   3.822  0.1214  0.2003  0.8220
 1923WAT      O 6170   4.253   0.968   0.994 -0.5453 -0.0479  0.1517
 1923WAT     H1 6171   4.181   0.922   0.950  1.1864 -2.2356 -0.6196
 1923WAT     H2 6172   4.240   0.950   1.087 -1.3512  0.1635  0.0884
 1924WAT      O 6173   0.682   2.245   0.050 -0.1610  0.6964  0.6108
 1924WAT     H1 6174   0.745   2.248  -0.022  0.0122  1.1534  0.7807
 1924WAT     H2 6175   0.596   2.246   0.007 -0.1430 -2.5391  0.2187
 1925WAT      O 6176   1.891   3.362   4.393 -0.1973  0.1971 -0.5664
 1925WAT     H1 6177   1.853   3.326   4.473  1.9297 -0.5801  0.1552
 1925WAT     H2 6178   1.877   3.294   4.327 -0.2508  0.0101 -0.3630
 1926WAT      O 6179   6.467   6.603   1.858 -0.5502 -0.3401 -0.2066
 1926WAT     H1 6180   6.470   6.686   1.811  1.3845  0.1745  0.7116
 1926WAT     H2 6181   6.556   6.590   1.890 -0.7200 -2.8968 -0.4857
 1927WAT      O 6182   0.514   5.298   3.890 -0.0775  1.1856  0.2362
 1927WAT     H1 6183   0.539   5.215   3.929  0.2222  0.4881 -1.3686
 1927WAT     H2 6184   0.462   5.341   3.958 -0.8720 -0.6240  0.8490
 1928WAT      O 6185   3.681   5.654   5.765 -0.2274 -0.0715 -0.0503
 1928WAT     H1 6186   3.635   5.691   5.840  1.7432  3.2006 -0.2807
 1928WAT     H2 6187   3.628   5.680   5.690 -0.1296  0.0963 -0.0600
 1929WAT      O 6188   7.378   2.794   2.152 -0.0809  0.1290 -0.1976
 1929WAT     H1 6189   7.330   2.861   2.200  0.0117  1.4193 -1.8042
 1929WAT     H2 6190   7.457   2.839   2.120  1.6601 -1.6144  1.3844
 1930WAT      O 6191   4.771   1.227   3.017  0.3405 -0.9010  0.1814
 1930WAT     H1 6192   4.752   1.244   3.109 -1.4239 -0.4854 -0.2245
 1930WAT     H2 6193   4.735   1.141   3.000  1.7436 -1.5064  0.1447
 1931WAT      O 6194   3.832   6.445   2.320  0.4266  0.6838 -0.4425
 1931WAT     H1 6195   3.760   6.506   2.339  0.9838  1.7386 -1.5309
 1931WAT     H2 6196   3.792   6.377   2.266  0.0825  0.8679 -0.4216
 1932WAT      O 6197   5.446   0.304   3.590  0.5093  0.7352  0.0458
 1932WAT     H1 6198   5.535   0.270   3.581 -0.0048 -0.1294 -3.2283
 1932WAT     H2 6199   5.408   0.253   3.662  1.9778 -0.4900 -0.0027
 1933WAT      O 6200   4.579   3.105   6.068  0.2504  0.4258  0.0950
 1933WAT     H1 6201   4.654   3.047   6.084  0.4067  0.2571 -1.0943
 1933WAT     H2 6202   4.607   3.190   6.101  0.1975 -0.0505  1.4351
 1934WAT      O 6203   7.156   3.140   2.784 -0.1055 -0.3353  0.0122
 1934WAT     H1 6204   7.089   3.075   2.762 -1.4060  1.1762 -0.6707
 1934WAT     H2 6205   7.169   3.131   2.878  0.0080 -1.8115 -0.1268
 1935WAT      O 6206   6.872   6.211   2.575 -0.2316  0.5912 -0.2463
 1935WAT     H1 6207   6.829   6.127   2.587  0.0546  0.5077  0.2160
 1935WAT     H2 6208   6.828   6.250   2.499 -0.4148  0.0617 -0.4128
 1936WAT      O 6209   6.290   4.768   4.688 -0.0747  0.2252  0.0334
 1936WAT     H1 6210   6.330   4.841   4.640 -0.1498 -0.0021 -0.3770
 1936WAT     H2 6211   6.219   4.738   4.631  0.4732 -0.6983 -0.1780
 1937WAT      O 6212   5.827   6.019   0.399  0.0880 -0.1379  1.0096
 1937WAT     H1 6213   5.784   6.104   0.391 -3.2728 -1.7881 -0.3172
 1937WAT     H2 6214   5.820   5.997   0.492 -2.1137 -0.3270  0.8546
 1938WAT      O 6215   3.582   2.690   5.450  0.3010 -0.0783  0.1171
 1938WAT     H1 6216   3.572   2.645   5.366 -0.8847  0.5247 -0.0837
 1938WAT     H2 6217   3.644   2.761   5.432 -0.0501  0.1321 -0.2865
 1939WAT      O 6218   6.980   4.060   2.677 -0.3649  0.4512  0.1724
 1939WAT     H1 6219   6.970   3.993   2.744  0.8112  0.0129 -0.0775
 1939WAT     H2 6220   6.986   4.012   2.595  2.1531  0.7017  0.1342
 1940WAT      O 6221   5.753   2.801   3.955  0.2981 -0.3175  0.0960
 1940WAT     H1 6222   5.792   2.718   3.927 -0.5049 -1.2861  1.7269
 1940WAT     H2 6223   5.826   2.849   3.994  0.8797  0.0104 -1.3105
 1941WAT      O 6224   3.042   0.344   0.113  0.3922 -0.5222 -0.0131
 1941WAT     H1 6225   2.963   0.328   0.063  0.4306 -1.1515  0.1072
 1941WAT     H2 6226   3.061   0.259   0.155  1.5305 -0.6015 -0.6267
 1942WAT      O 6227   5.148   6.326   4.881  0.6722 -0.0452  0.3247
 1942WAT     H1 6228   5.056   6.335   4.859  0.1020  0.6526  2.6873
 1942WAT     H2 6229   5.188   6.408   4.849  0.1803  0.3098  0.6125
 1943WAT      O 6230   3.645   1.768   3.589  0.0465  0.0227 -0.6015
 1943WAT     H1 6231   3.694   1.847   3.563  0.3328  0.5940  1.4744
 1943WAT     H2 6232   3.562   1.802   3.623 -0.5197 -0.7245 -1.1935
 1944WAT      O 6233   1.059   1.346   5.081 -0.5322  0.2912  0.2679
 1944WAT     H1 6234   0.981   1.354   5.137  0.2296  0.3403  1.3667
 1944WAT     H2 6235   1.054   1.256   5.048 -0.7740  0.1036  0.7834
 1945WAT      O 6236   7.528   6.445   2.385  0.6122 -0.2981  0.6293
 1945WAT     H1 6237   7.562   6.493   2.462 -0.0145  1.2431 -0.0048
 1945WAT     H2 6238   7.469   6.380   2.422 -1.1309  1.6302  1.4294
 1946WAT      O 6239   6.602   5.943   3.397  0.3744 -0.4735  0.1898
 1946WAT     H1 6240   6.508   5.928   3.382  0.3625 -0.5865  0.3775
 1946WAT     H2 6241   6.637   5.857   3.417  0.6178 -0.5146 -0.4064
 1947WAT      O 6242   5.539   2.149   5.430  0.1987  0.2148  0.0250
 1947WAT     H1 6243   5.517   2.060   5.401  1.2282  0.6940 -2.4989
 1947WAT     H2 6244   5.534   2.145   5.525  2.0091 -3.0792  0.1387
 1948WAT      O 6245   2.034   2.815   1.947  0.2848  0.0914 -0.0578
 1948WAT     H1 6246   2.107   2.840   2.004  0.0459  0.7462 -0.0348
 1948WAT     H2 6247   1.977   2.763   2.004  0.8281 -0.6065 -0.1321
 1949WAT      O 6248   1.476   1.744   4.616 -0.1667 -0.0033  0.9062
 1949WAT     H1 6249   1.407   1.739   4.681 -2.3915  0.3129 -1.2947
 1949WAT     H2 6250   1.510   1.654   4.610 -1.0238 -0.3722  1.3862
 1950WAT      O 6251   0.695   7.032   2.857  0.1755 -0.2931  0.0718
 1950WAT     H1 6252   0.742   6.977   2.920 -0.6519 -0.9144  0.1591
 1950WAT     H2 6253   0.759   7.050   2.788  0.3074 -1.8117 -0.2193
 1951WAT      O 6254   5.568   2.352   0.205 -0.0607  0.0654 -0.3926
 1951WAT     H1 6255   5.529   2.439   0.211 -0.2374 -0.0701  0.6693
 1951WAT     H2 6256   5.653   2.361   0.249 -0.0065 -0.2554 -0.4269
 1952WAT      O 6257   6.519   2.857   3.738  0.2989  0.2216 -0.1653
 1952WAT     H1 6258   6.587   2.855   3.671  0.6226  1.2463  0.1036
 1952WAT     H2 6259   6.557   2.911   3.808 -1.1434  1.6168 -0.4052
 1953WAT      O 6260   5.919   6.208   1.452 -0.3700  0.4888 -0.3704
 1953WAT     H1 6261   5.913   6.274   1.521 -1.9647 -0.4256  0.4335
 1953WAT     H2 6262   5.995   6.154   1.477  0.9375  1.9444 -1.0323
 1954WAT      O 6263   6.824   3.335   0.639  0.0358 -0.4322 -0.1971
 1954WAT     H1 6264   6.895   3.271   0.651 -1.5361 -1.7799  3.1643
 1954WAT     H2 6265   6.857   3.416   0.676  1.0098  0.0178 -1.9174
 1955WAT      O 6266   6.408   2.290   3.502 -0.1700  0.1851 -0.0745
 1955WAT     H1 6267   6.493   2.306   3.462  1.2630 -1.2579  2.1463
 1955WAT     H2 6268   6.410   2.341   3.583  0.2018 -2.6643  1.8487
 1956WAT      O 6269   1.299   1.201   0.072 -0.1125 -0.2122 -0.4964
 1956WAT     H1 6270   1.256   1.274   0.119  1.4943  2.0285 -2.2807
 1956WAT     H2 6271   1.334   1.146   0.142  0.8305  2.1223  1.0236
 1957WAT      O 6272   1.616   4.836   3.084  0.1139  0.6473  0.1704
 1957WAT     H1 6273   1.630   4.741   3.077 -0.8561  0.5317 -0.5028
 1957WAT     H2 6274   1.544   4.853   3.023 -0.2767  1.6910  0.9136
 1958WAT      O 6275   6.025   7.033   3.985  0.7558 -0.2180  0.9324
 1958WAT     H1 6276   6.090   7.024   4.055  0.5452 -1.2360  1.0088
 1958WAT     H2 6277   5.952   7.080   4.026  1.3987  0.8590  0.8656
 1959WAT      O 6278   3.328   6.667   5.655  0.0395  0.2430 -0.0885
 1959WAT     H1 6279   3.421   6.677   5.637  0.0387 -0.6434 -0.6916
 1959WAT     H2 6280   3.324   6.611   5.733  0.0056  1.0910  0.5381
 1960WAT      O 6281   0.643   3.460   3.739 -0.3102 -0.2538 -0.2535
 1960WAT     H1 6282   0.727   3.460   3.693  1.3169 -0.2997  2.4708
 1960WAT     H2 6283   0.640   3.375   3.783 -0.2207  0.9123  2.1680
 1961WAT      O 6284   1.004   0.797   5.465  0.1929  0.0577 -0.3221
 1961WAT     H1 6285   0.965   0.844   5.538 -0.0488 -2.6939  1.4758
 1961WAT     H2 6286   1.098   0.805   5.478  0.1626 -1.2204  0.9390
 1962WAT      O 6287   3.893   2.667   1.702  0.7653  0.3680 -0.1533
 1962WAT     H1 6288   3.808   2.642   1.666  0.2830  2.4678 -0.6559
 1962WAT     H2 6289   3.879   2.755   1.737  2.3940  0.1981  1.0582
 1963WAT      O 6290   0.468   5.659   5.536  0.2980  0.0229 -0.0621
 1963WAT     H1 6291   0.406   5.670   5.609 -0.4462 -0.8600 -0.5269
 1963WAT     H2 6292   0.491   5.748   5.510 -0.9399  0.3793 -0.0004
 1964WAT      O 6293   2.218   0.792   1.706  0.3330 -0.1436 -0.2800
 1964WAT     H1 6294   2.274   0.807   1.630  0.1212  0.8914 -0.2440
 1964WAT     H2 6295   2.168   0.873   1.716  0.7663 -0.0265  1.3084
 1965WAT      O 6296   2.595   2.691   2.308  0.5886  0.6115  0.1170
 1965WAT     H1 6297   2.620   2.608   2.348 -2.0622  0.0080  0.7486
 1965WAT     H2 6298   2.674   2.722   2.264  1.4788 -2.6054 -0.8095
 1966WAT      O 6299   6.168   6.526   2.736  0.0343 -0.1859  0.1556
 1966WAT     H1 6300   6.083   6.561   2.710 -0.9098 -2.7293 -0.4829
 1966WAT     H2 6301   6.165   6.524   2.832 -0.6186 -0.2761  0.1324
 1967WAT      O 6302   0.814   1.165   1.165 -0.1854  0.0982  0.1046
 1967WAT     H1 6303   0.887   1.156   1.104 -0.5064 -0.0811 -0.2585
 1967WAT     H2 6304   0.783   1.075   1.180 -0.4431  0.1855  0.1148
 1968WAT      O 6305   3.577   1.378   0.448  0.3339  0.2392  0.1557
 1968WAT     H1 6306   3.577   1.294   0.492  0.6102  0.2961  0.2710
 1968WAT     H2 6307   3.662   1.381   0.402  0.4033  0.5249  0.2960
 1969WAT      O 6308   7.360   0.011   3.213  0.0799 -0.5088  0.2666
 1969WAT     H1 6309   7.328   0.099   3.191 -1.6220 -1.0364  0.4977
 1969WAT     H2 6310   7.337   0.000   3.305 -1.2657 -1.8233 -0.2003
 1970WAT      O 6311   2.725   3.259   5.413 -0.1964  0.3666 -0.4270
 1970WAT     H1 6312   2.674   3.181   5.392 -0.1408  0.5804 -1.4198
 1970WAT     H2 6313   2.802   3.253   5.357 -0.1802  1.1222 -0.4929
 1971WAT      O 6314   0.355   6.157   2.799 -0.1360 -0.0524  0.0483
 1971WAT     H1 6315   0.431   6.195   2.842 -0.5451 -1.9614  2.6913
 1971WAT     H2 6316   0.391   6.109   2.724  1.0416  0.4677  0.2648
 1972WAT      O 6317   2.218   5.106   2.954  0.1528 -0.0154 -0.1976
 1972WAT     H1 6318   2.233   5.183   2.900  1.2275  0.1552  0.2989
 1972WAT     H2 6319   2.145   5.060   2.912 -0.2946  1.0966 -0.6784
 1973WAT      O 6320   4.117   4.118   0.509 -0.2473  0.3227 -0.1935
 1973WAT     H1 6321   4.057   4.125   0.584  2.1341 -0.6047  1.9717
 1973WAT     H2 6322   4.097   4.194   0.455 -2.7544  0.5060  0.8324
 1974WAT      O 6323   7.114   3.628   0.735 -0.2228  0.4146 -0.1037
 1974WAT     H1 6324   7.075   3.580   0.808  1.4370 -1.1313 -0.1874
 1974WAT     H2 6325   7.205   3.644   0.763  0.0299  1.0483 -1.2460
 1975WAT      O 6326   2.499   6.935   4.845 -0.9100  0.1235 -0.4499
 1975WAT     H1 6327   2.491   6.952   4.751  1.2245  1.2386 -0.4983
 1975WAT     H2 6328   2.489   6.840   4.853  0.1338 -0.1536 -2.0011
 1976WAT      O 6329   1.236   5.108   3.065  0.5629 -0.4525 -0.2122
 1976WAT     H1 6330   1.177   5.165   3.114  1.4574  0.4568 -0.1423
 1976WAT     H2 6331   1.298   5.075   3.130  0.1728 -1.3517 -0.2892
 1977WAT      O 6332   3.956   7.203   0.577 -0.5357  0.4810 -0.3094
 1977WAT     H1 6333   3.883   7.263   0.564 -0.7037  0.3778  0.1418
 1977WAT     H2 6334   4.005   7.241   0.650 -0.8682 -0.1440  0.2429
 1978WAT      O 6335   4.361   3.966   4.959 -0.3838  0.5089  0.6033
 1978WAT     H1 6336   4.398   4.025   5.025 -0.9916  0.6452  0.8344
 1978WAT     H2 6337   4.295   4.019   4.915  1.4311  1.0946 -1.5654
 1979WAT      O 6338   0.189   6.767   5.933 -0.3201  0.7088  0.1765
 1979WAT     H1 6339   0.165   6.806   5.849  0.2848  0.3355 -0.1727
 1979WAT     H2 6340   0.113   6.783   5.989 -1.4327 -0.5130 -0.9238
 1980WAT      O 6341   2.202   0.771   3.515  0.0127  0.0533  0.1195
 1980WAT     H1 6342   2.163   0.725   3.442  1.4051 -1.8939  0.5241
 1980WAT     H2 6343   2.141   0.758   3.588  0.9574 -2.3635  0.5674
 1981WAT      O 6344   3.923   7.147   0.957 -0.6040 -0.4574  0.2999
 1981WAT     H1 6345   3.958   7.186   1.037  2.0756 -1.2400 -0.4003
 1981WAT     H2 6346   3.932   7.214   0.890 -2.4474  0.0467  0.5087
 1982WAT      O 6347   3.190   0.743   3.881  0.1783  0.4314 -0.6701
 1982WAT     H1 6348   3.101   0.715   3.861 -0.3347 -0.8023  2.6072
 1982WAT     H2 6349   3.241   0.662   3.879  0.9828  0.9357 -1.2599
 1983WAT      O 6350   1.965   2.423   3.928  0.2288 -0.5530 -0.2175
 1983WAT     H1 6351   1.916   2.427   4.010  0.2816  0.6965 -0.2231
 1983WAT     H2 6352   1.897   2.414   3.861  0.1317 -0.7119 -0.1000
 1984WAT      O 6353   4.083   2.094   4.682  0.4591  0.1272  0.0102
 1984WAT     H1 6354   4.068   2.148   4.759  1.8676  0.2050  0.2596
 1984WAT     H2 6355   4.179   2.087   4.675  0.3485 -0.6053 -1.2191
 1985WAT      O 6356   5.273   4.216   1.940  0.2434  0.0008  0.5645
 1985WAT     H1 6357   5.194   4.180   1.981  0.2728  0.3677  0.9522
 1985WAT     H2 6358   5.290   4.297   1.989 -0.6966  1.3608 -1.2458
 1986WAT      O 6359   7.404   4.232   1.721 -0.0079  0.5686  0.1543
 1986WAT     H1 6360   7.432   4.217   1.811 -2.6488 -4.0203  0.5356
 1986WAT     H2 6361   7.314   4.263   1.728  0.0400  1.0109 -0.9398
 1987WAT      O 6362   0.413   6.382   1.184 -0.8027 -0.7034 -0.2058
 1987WAT     H1 6363   0.403   6.395   1.278  0.4990  1.4829 -0.2832
 1987WAT     H2 6364   0.466   6.303   1.175  1.3601  0.5123  1.0792
 1988WAT      O 6365   2.639   6.989   4.368 -0.4123 -0.5780  0.1999
 1988WAT     H1 6366   2.573   6.938   4.415 -0.7773  0.7076  1.1232
 1988WAT     H2 6367   2.676   7.047   4.435 -0.1087  0.4585 -0.8477
 1989WAT      O 6368   7.218   2.229   5.353 -0.4695  0.1184 -0.1390
 1989WAT     H1 6369   7.239   2.267   5.438  1.6957  1.0948 -1.0469
 1989WAT     H2 6370   7.128   2.257   5.336 -0.5764  0.7669  1.3615
 1990WAT      O 6371   6.728   1.136   2.737  0.2473 -0.0025  0.4039
 1990WAT     H1 6372   6.721   1.110   2.829  0.9086 -3.2086 -0.3305
 1990WAT     H2 6373   6.821   1.137   2.719  0.0843 -1.0525 -0.6005
 1991WAT      O 6374   7.433   6.539   0.547  0.3592 -0.0357  0.2878
 1991WAT     H1 6375   7.425   6.619   0.598 -0.2049  0.8517 -1.1314
 1991WAT     H2 6376   7.360   6.485   0.575  2.1721 -1.2361  3.1359
 1992WAT      O 6377   3.138   1.637   0.613 -0.2139  0.1726  0.2177
 1992WAT     H1 6378   3.221   1.596   0.587 -0.9829 -0.8927 -0.6247
 1992WAT     H2 6379   3.164   1.709   0.671  1.2548 -0.6145  0.5763
 1993WAT      O 6380   4.483   1.827   4.011 -0.5548 -0.0735  0.2931
 1993WAT     H1 6381   4.500   1.853   3.921 -0.3502  0.3778  0.4553
 1993WAT     H2 6382   4.427   1.897   4.046  1.6873  1.3201  1.3581
 1994WAT      O 6383   1.701   6.853   0.199 -0.1304 -0.4143  0.2239
 1994WAT     H1 6384   1.616   6.844   0.242 -0.5147  3.1293  0.5152
 1994WAT     H2 6385   1.755   6.901   0.262  0.7790  0.8573 -1.4442
 1995WAT      O 6386   3.750   3.272   4.470  0.0269 -0.1387 -0.4270
 1995WAT     H1 6387   3.825   3.234   4.425  0.2623  1.2188 -1.2019
 1995WAT     H2 6388   3.783   3.294   4.557  0.4638  0.2321 -0.6851
 1996WAT      O 6389   2.587   5.997   0.326 -0.2393  0.0328 -1.1926
 1996WAT     H1 6390   2.649   5.947   0.379 -0.3400 -0.0591 -1.1627
 1996WAT     H2 6391   2.502   5.959   0.345 -0.3598  0.4405 -0.9118
 1997WAT      O 6392   1.351   5.943   5.387 -0.1570 -0.5992 -1.1517
 1997WAT     H1 6393   1.351   5.906   5.475  0.5459 -0.8440 -1.2483
 1997WAT     H2 6394   1.285   6.012   5.390 -0.5361 -0.9802 -0.5948
 1998WAT      O 6395   0.018   2.817   0.976 -0.8741  0.0989  0.5745
 1998WAT     H1 6396   0.086   2.774   1.027 -0.7247  0.1924  0.4528
 1998WAT     H2 6397   0.005   2.901   1.019 -1.5263 -0.2739  1.1181
 1999WAT      O 6398   7.645   3.505   6.072  0.0283 -0.2078 -0.3518
 1999WAT     H1 6399   7.686   3.480   6.155 -0.3671 -3.0413 -0.9160
 1999WAT     H2 6400   7.553   3.482   6.083 -0.9070  3.0656 -0.2661
 2000WAT      O 6401   3.323   7.067   5.454 -0.1587 -0.2668 -0.4644
 2000WAT     H1 6402   3.358   7.148   5.490 -0.3210 -0.4675  0.1509
 2000WAT     H2 6403   3.399   7.020   5.420 -0.0491  0.0744 -0.7003
 2001WAT      O 6404   1.045   6.992   3.986 -0.3117  0.3026  0.1366
 2001WAT     H1 6405   1.104   7.055   4.028 -1.5860  1.4218  0.3011
 2001WAT     H2 6406   0.982   6.969   4.055  0.1691 -1.2272  0.0999
 2002WAT      O 6407   5.835   2.351   3.254 -0.3233 -0.1346 -0.1614
 2002WAT     H1 6408   5.916   2.310   3.286  0.7171  1.4140 -0.6962
 2002WAT     H2 6409   5.865   2.424   3.199 -2.0899  0.6401 -0.1600
 2003WAT      O 6410   1.067   0.173   3.702 -0.3651 -0.0118 -0.1887
 2003WAT     H1 6411   1.013   0.094   3.702  0.8014 -0.8471 -1.2982
 2003WAT     H2 6412   1.048   0.215   3.618  1.6363 -1.0100 -1.1861
 2004WAT      O 6413   5.070   5.734   0.109  0.3438 -0.2077  0.6702
 2004WAT     H1 6414   4.991   5.711   0.158 -0.0527 -0.6805 -0.1760
 2004WAT     H2 6415   5.121   5.787   0.171 -0.1652 -0.7372  1.5759
 2005WAT      O 6416   3.848   1.252   2.236  0.0846 -0.0996 -0.2994
 2005WAT     H1 6417   3.842   1.282   2.327 -1.8458 -0.1035 -0.3769
 2005WAT     H2 6418   3.847   1.333   2.185 -0.5715 -0.1443 -0.3628
 2006WAT      O 6419   3.811   0.407   1.072 -0.0636 -0.8240  0.2531
 2006WAT     H1 6420   3.877   0.464   1.032 -0.5756  0.0946  0.6712
 2006WAT     H2 6421   3.806   0.436   1.163 -2.2203  0.3051 -0.1444
 2007WAT      O 6422   2.695   6.988   0.853 -0.2617 -0.5762 -0.1245
 2007WAT     H1 6423   2.732   7.040   0.781 -0.7200 -0.5220 -0.3234
 2007WAT     H2 6424   2.616   6.950   0.816 -0.0868 -1.1810  0.1113
 2008WAT      O 6425   5.430   1.382   3.410  0.0564  0.3878 -0.3071
 2008WAT     H1 6426   5.395   1.396   3.498 -0.0187  0.0837 -0.2894
 2008WAT     H2 6427   5.461   1.292   3.410 -1.9381 -0.3449 -1.2608
 2009WAT      O 6428   6.433   3.453   4.816 -0.0827  0.1651  0.1903
 2009WAT     H1 6429   6.367   3.438   4.884  0.2505  2.3151  1.0774
 2009WAT     H2 6430   6.517   3.441   4.861  0.1385 -0.0384 -0.2698
 2010WAT      O 6431   1.459   0.776   4.385 -0.0825 -0.7578  0.1290
 2010WAT     H1 6432   1.389   0.757   4.447 -1.4597 -0.9852 -1.4459
 2010WAT     H2 6433   1.425   0.749   4.300  0.8592  1.6001 -1.1006
 2011WAT      O 6434   3.099   0.051   0.212 -0.6940 -0.4434  0.1946
 2011WAT     H1 6435   3.136  -0.005   0.280  0.8896 -0.8221 -0.8966
 2011WAT     H2 6436   3.040  -0.006   0.163  0.4505 -1.0535 -0.5392
 2012WAT      O 6437   4.836   1.586   0.768  0.0315  0.1477  0.2322
 2012WAT     H1 6438   4.845   1.612   0.676  1.1151  1.3561  0.6332
 2012WAT     H2 6439   4.919   1.614   0.808 -0.9146  0.7830  1.8256
 2013WAT      O 6440   4.862   4.717   3.582  0.1252  0.1836  0.1418
 2013WAT     H1 6441   4.779   4.747   3.545  0.8822  0.5377 -1.3381
 2013WAT     H2 6442   4.870   4.626   3.553 -0.0080 -0.0329  0.7704
 2014WAT      O 6443   7.587   3.160   1.980 -0.3694 -0.0116 -0.1170
 2014WAT     H1 6444   7.577   3.078   2.028 -1.3425  0.2346  0.1231
 2014WAT     H2 6445   7.519   3.217   2.015  0.4036  0.9692 -0.1607
 2015WAT      O 6446   3.213   2.696   2.436  0.1980  0.2548 -0.2073
 2015WAT     H1 6447   3.172   2.662   2.356 -0.5792  0.7840 -0.0437
 2015WAT     H2 6448   3.206   2.624   2.499 -3.2582  1.2592  0.7808
 2016WAT      O 6449   2.589   4.078   2.085  0.8039 -0.5156  0.2043
 2016WAT     H1 6450   2.534   4.082   2.007  0.4643  0.3102  0.4749
 2016WAT     H2 6451   2.595   3.985   2.106  0.0721 -0.6603 -0.2234
 2017WAT      O 6452   5.382   5.601   2.379  0.3679  0.2661 -0.2415
 2017WAT     H1 6453   5.366   5.645   2.462  1.6835  0.8586 -0.2794
 2017WAT     H2 6454   5.455   5.649   2.340 -0.0190 -0.1961 -1.5990
 2018WAT      O 6455   6.600   5.785   2.523 -0.5179  0.0610 -0.0446
 2018WAT     H1 6456   6.691   5.808   2.510 -0.5041  0.7108  1.0026
 2018WAT     H2 6457   6.553   5.868   2.516 -0.8286 -0.0141  0.9292
 2019WAT      O 6458   5.547   1.343   5.424  0.1974  0.6321 -0.3350
 2019WAT     H1 6459   5.529   1.411   5.359 -0.6425 -0.1169 -0.9074
 2019WAT     H2 6460   5.516   1.262   5.384 -1.1098  0.2575  1.3049
 2020WAT      O 6461   1.422   2.003   0.745 -0.5421 -0.4644  0.4803
 2020WAT     H1 6462   1.413   2.013   0.840 -1.7373 -1.0060  0.4461
 2020WAT     H2 6463   1.480   1.928   0.735 -0.6350 -0.5856  0.8013
 2021WAT      O 6464   1.683   0.669   3.150  0.5431 -0.4522 -0.5579
 2021WAT     H1 6465   1.713   0.583   3.178  0.1214 -0.9115 -1.4651
 2021WAT     H2 6466   1.679   0.721   3.230 -0.0487 -1.5294  0.1311
 2022WAT      O 6467   6.333   5.547   3.835  0.1424 -0.2862  0.1808
 2022WAT     H1 6468   6.348   5.547   3.930  0.1417 -0.1961  0.1807
 2022WAT     H2 6469   6.365   5.462   3.806 -0.6026 -0.6465  0.3790
 2023WAT      O 6470   3.811   4.639   1.427  0.5288 -0.0242  0.4240
 2023WAT     H1 6471   3.763   4.594   1.496  0.3126 -2.0798 -0.9547
 2023WAT     H2 6472   3.747   4.695   1.384 -0.2752 -1.4892 -0.3533
 2024WAT      O 6473   1.751   3.580   4.775 -0.7163  0.0374  0.1138
 2024WAT     H1 6474   1.727   3.492   4.803 -1.1012  0.0870 -0.0592
 2024WAT     H2 6475   1.827   3.602   4.829  0.7166 -1.2023 -1.2890
 2025WAT      O 6476   3.119   1.095   5.417 -0.2465  0.2450 -0.4182
 2025WAT     H1 6477   3.129   1.185   5.386  0.6362  0.1662 -0.4053
 2025WAT     H2 6478   3.173   1.043   5.357 -0.2838 -0.1970 -0.0738
 2026WAT      O 6479   1.659   2.274   6.066 -0.1280 -0.1705  0.4682
 2026WAT     H1 6480   1.601   2.198   6.061  1.5250 -1.7034  2.5962
 2026WAT     H2 6481   1.630   2.322   6.143  1.7457 -1.3521  2.0004
 2027WAT      O 6482   1.437   6.920   1.706 -0.7358  0.4937 -0.6935
 2027WAT     H1 6483   1.368   6.912   1.771  0.1715  0.3840  0.2962
 2027WAT     H2 6484   1.498   6.848   1.727 -0.7161  0.0973 -2.0324
 2028WAT      O 6485   5.289   6.894   5.158  0.6179  0.0110  0.5613
 2028WAT     H1 6486   5.219   6.909   5.094 -0.0336 -0.3580  1.1696
 2028WAT     H2 6487   5.261   6.815   5.205  0.8838  0.5086  1.5716
 2029WAT      O 6488   5.530   0.091   4.050 -0.2841  0.0561 -0.4995
 2029WAT     H1 6489   5.596   0.038   4.006 -0.8608 -1.7791  0.7092
 2029WAT     H2 6490   5.575   0.128   4.126 -0.1303  0.5015 -0.8057
 2030WAT      O 6491   6.210   3.975   0.568 -0.3550  0.4672  0.1815
 2030WAT     H1 6492   6.162   4.058   0.564 -1.3625 -0.1319 -0.2783
 2030WAT     H2 6493   6.246   3.964   0.480 -0.1468  0.4483  0.2676
 2031WAT      O 6494   1.289   6.722   3.688 -0.2083 -0.0968 -0.0592
 2031WAT     H1 6495   1.236   6.651   3.652 -2.0334  1.5001 -0.7104
 2031WAT     H2 6496   1.230   6.768   3.748  0.3425  1.8741 -0.9359
 2032WAT      O 6497   4.961   6.784   4.375 -0.4084  0.1596 -0.2120
 2032WAT     H1 6498   4.980   6.690   4.365 -0.7741  0.2598 -2.3963
 2032WAT     H2 6499   4.970   6.800   4.468  0.3964 -1.8980  0.1307
 2033WAT      O 6500   0.449   5.396   2.430  0.5871 -0.0656 -0.3065
 2033WAT     H1 6501   0.449   5.301   2.444  0.3149 -0.3329 -1.9056
 2033WAT     H2 6502   0.381   5.410   2.363 -0.4046  1.4398  0.9353
 2034WAT      O 6503   4.111   6.773   2.545 -1.0099 -0.0000  0.1477
 2034WAT     H1 6504   4.180   6.781   2.611 -2.1977  0.9782  1.3383
 2034WAT     H2 6505   4.102   6.679   2.532 -0.1135 -0.1789  0.6813
 2035WAT      O 6506   1.436   4.192   4.873  0.4647  0.2911 -0.1381
 2035WAT     H1 6507   1.468   4.115   4.920 -1.4861  0.1302  1.0021
 2035WAT     H2 6508   1.494   4.263   4.901  1.6834 -0.5516 -0.4645
 2036WAT      O 6509   6.290   6.982   3.009  0.8622  0.0052 -0.1412
 2036WAT     H1 6510   6.321   6.912   3.067  1.7284  0.3506 -0.1775
 2036WAT     H2 6511   6.334   7.061   3.040  0.6071  0.3647 -0.6757
 2037WAT      O 6512   2.700   0.776   5.284 -0.1909  0.0363  0.2587
 2037WAT     H1 6513   2.638   0.801   5.352  1.0043  1.2727  0.9452
 2037WAT     H2 6514   2.784   0.772   5.328  0.4056 -0.4591 -0.8798
 2038WAT      O 6515   5.166   2.157   2.277  0.0654  0.0961 -0.4732
 2038WAT     H1 6516   5.080   2.124   2.252  0.3484 -0.8625 -0.2244
 2038WAT     H2 6517   5.228   2.103   2.228  0.5252  1.4659 -1.4686
 2039WAT      O 6518   6.661   5.928   5.741  0.2705  0.0045 -0.6350
 2039WAT     H1 6519   6.639   5.836   5.732 -2.2248  0.5484 -0.6658
 2039WAT     H2 6520   6.682   5.939   5.833  1.9269 -0.7945 -0.8666
 2040WAT      O 6521   7.475   0.434   5.575  0.2274  0.5443 -0.0231
 2040WAT     H1 6522   7.495   0.490   5.650  0.2359  2.0299 -1.0881
 2040WAT     H2 6523   7.384   0.455   5.552 -0.9848 -2.3471  1.5609
 2041WAT      O 6524   5.157   4.016   2.678  0.0558  0.3078 -0.1787
 2041WAT     H1 6525   5.099   4.003   2.753  1.8848 -0.5269  1.1416
 2041WAT     H2 6526   5.169   4.111   2.674  0.0814  0.3529  0.6967
 2042WAT      O 6527   5.221   3.513   1.035 -0.2626  0.0407  0.4939
 2042WAT     H1 6528   5.249   3.585   1.092 -0.2080  0.6826 -0.3213
 2042WAT     H2 6529   5.289   3.447   1.045 -0.2384  0.1504  1.1448
 2043WAT      O 6530   3.379   4.732   4.216 -0.0355  0.4466 -0.8890
 2043WAT     H1 6531   3.413   4.676   4.286 -1.3120 -0.0977 -0.6854
 2043WAT     H2 6532   3.288   4.746   4.239 -0.5440  0.0774 -2.5525
 2044WAT      O 6533   3.853   5.354   0.156  0.1079  0.1438  0.2280
 2044WAT     H1 6534   3.893   5.433   0.193 -0.1323  0.1224  0.5337
 2044WAT     H2 6535   3.766   5.350   0.196  0.1182 -0.2727  0.2044
 2045WAT      O 6536   3.197   5.309   0.432 -0.0275 -0.3235  0.3512
 2045WAT     H1 6537   3.109   5.276   0.452  0.1810 -0.4802  1.0491
 2045WAT     H2 6538   3.182   5.399   0.401 -0.6700 -1.3132 -2.4311
 2046WAT      O 6539   7.177   2.284   1.697 -0.2931 -0.7188  0.2570
 2046WAT     H1 6540   7.105   2.225   1.679 -0.7981  0.1703 -0.7400
 2046WAT     H2 6541   7.240   2.231   1.746 -0.6974 -2.0872 -0.6444
 2047WAT      O 6542   3.990   4.739   5.962  0.0996 -0.0051 -0.0486
 2047WAT     H1 6543   3.956   4.828   5.948 -2.8765 -0.8215  1.3219
 2047WAT     H2 6544   4.041   4.745   6.042 -1.1683  0.2557  0.7664
 2048WAT      O 6545   0.179   2.250   6.135  0.0951 -0.3529 -0.2216
 2048WAT     H1 6546   0.084   2.248   6.151 -0.1899  0.6957 -1.5925
 2048WAT     H2 6547   0.210   2.166   6.168 -0.9290  0.1887  2.3755
 2049WAT      O 6548   5.052   5.385   3.808  0.2057 -0.3790 -0.2669
 2049WAT     H1 6549   4.987   5.336   3.757 -0.8847  0.1553  0.5695
 2049WAT     H2 6550   5.008   5.404   3.891  1.3399  0.2539  0.2111
 2050WAT      O 6551   3.013   2.484   4.331  0.1656  0.2871 -0.3398
 2050WAT     H1 6552   3.010   2.510   4.239 -0.0991 -0.4362 -0.5405
 2050WAT     H2 6553   2.953   2.410   4.337  0.8443 -0.2316  0.2310
 2051WAT      O 6554   3.679   5.627   1.062 -0.1347 -0.3950  0.7866
 2051WAT     H1 6555   3.729   5.679   1.126  0.7900 -0.3159  0.0328
 2051WAT     H2 6556   3.642   5.555   1.112  0.9717 -0.5991  1.3424
 2052WAT      O 6557   5.870   6.247   4.707 -0.5712 -0.1729  0.4581
 2052WAT     H1 6558   5.895   6.339   4.700 -0.8249 -0.1515 -0.2520
 2052WAT     H2 6559   5.795   6.238   4.648  0.6688 -1.2691 -1.0160
 2053WAT      O 6560   3.900   4.458   0.967  0.0167 -0.1370 -0.8079
 2053WAT     H1 6561   3.879   4.431   1.056 -1.2552 -0.6395 -1.2324
 2053WAT     H2 6562   3.988   4.495   0.973  0.2224 -0.7761  0.5248
 2054WAT      O 6563   4.315   3.399   6.208  0.4316 -0.3072  0.0112
 2054WAT     H1 6564   4.310   3.356   6.293 -0.1186 -0.8629 -0.2947
 2054WAT     H2 6565   4.314   3.327   6.145  0.2515  0.1224 -0.4822
 2055WAT      O 6566   2.113   0.311   0.236 -0.5498  0.4130  0.4872
 2055WAT     H1 6567   2.158   0.261   0.169  0.8549 -0.9073  2.3033
 2055WAT     H2 6568   2.160   0.290   0.317 -2.6152  1.3231  2.0162
 2056WAT      O 6569   3.133   2.573   4.550 -0.1949 -0.6545  0.2706
 2056WAT     H1 6570   3.219   2.533   4.542  0.0853  0.3233 -2.3947
 2056WAT     H2 6571   3.081   2.533   4.480 -1.9124 -1.0941  1.7102
 2057WAT      O 6572   5.018   0.645   2.383  0.4071  0.8973  0.3484
 2057WAT     H1 6573   5.041   0.729   2.344  1.7292  0.2269 -0.4076
 2057WAT     H2 6574   5.073   0.639   2.461  1.2434  0.2124 -0.2799
 2058WAT      O 6575   5.958   5.403   1.800  0.2544  0.2773  0.1649
 2058WAT     H1 6576   5.964   5.448   1.884  0.7214 -0.6226  0.6214
 2058WAT     H2 6577   5.882   5.442   1.757 -0.8237 -0.2061  1.5741
 2059WAT      O 6578   1.955   5.146   3.333 -0.1304  0.0006  0.0759
 2059WAT     H1 6579   1.940   5.200   3.255 -0.9784 -0.9682 -0.4628
 2059WAT     H2 6580   1.895   5.072   3.322  0.9029 -0.9844  0.8527
 2060WAT      O 6581   0.021   4.363   4.472  0.1842 -0.5532  0.6013
 2060WAT     H1 6582   0.044   4.310   4.549  0.3893  0.0501  0.9611
 2060WAT     H2 6583  -0.058   4.410   4.499  0.2052 -0.4090  0.4056
 2061WAT      O 6584   6.235   0.333   5.133  0.1930 -0.6012 -0.2189
 2061WAT     H1 6585   6.249   0.269   5.203 -1.6956 -0.0018  0.7865
 2061WAT     H2 6586   6.236   0.418   5.178 -0.6962 -0.1746 -0.9676
 2062WAT      O 6587   7.519   3.830   2.632  0.1880  0.3241 -0.2106
 2062WAT     H1 6588   7.506   3.831   2.727  0.7046 -1.8163 -0.0762
 2062WAT     H2 6589   7.608   3.862   2.620  0.1228  0.5978  0.0035
 2063WAT      O 6590   5.425   0.104   5.011  0.4117 -0.4559 -0.4942
 2063WAT     H1 6591   5.503   0.157   5.001 -0.4383  0.6492 -1.4718
 2063WAT     H2 6592   5.355   0.167   5.027 -0.3953 -1.3747 -0.3071
 2064WAT      O 6593   0.690   0.711   0.120 -0.0129 -0.4494  0.3890
 2064WAT     H1 6594   0.645   0.699   0.204  0.7082  0.6927  0.9615
 2064WAT     H2 6595   0.656   0.794   0.087 -0.4559 -0.9921 -0.5847
 2065WAT      O 6596   1.273   5.105   5.801  0.1444 -0.2136 -0.5491
 2065WAT     H1 6597   1.187   5.090   5.841  1.1106 -0.1867  1.6608
 2065WAT     H2 6598   1.294   5.196   5.825  0.8419 -0.2510 -0.9988
 2066WAT      O 6599   5.702   3.416   1.924 -0.3963 -0.0718  0.1270
 2066WAT     H1 6600   5.797   3.407   1.920 -0.2857 -0.6682  2.4271
 2066WAT     H2 6601   5.688   3.507   1.948 -0.2440 -0.4727  1.9040
 2067WAT      O 6602   5.933   1.912   2.772  0.6002  0.0854 -0.2070
 2067WAT     H1 6603   5.948   1.996   2.815  0.1585  0.0842 -0.0390
 2067WAT     H2 6604   6.002   1.855   2.806  2.0348  0.8619 -1.7276
 2068WAT      O 6605   3.536   0.650   1.548  0.1692  0.1656 -0.0476
 2068WAT     H1 6606   3.586   0.658   1.630  0.4697 -2.0339  0.0615
 2068WAT     H2 6607   3.479   0.575   1.563  0.6383 -0.6368 -2.0393
 2069WAT      O 6608   4.717   2.611   1.754 -0.4403  0.0054 -0.0399
 2069WAT     H1 6609   4.812   2.600   1.753 -0.3759  0.5379 -1.2096
 2069WAT     H2 6610   4.688   2.567   1.835  0.8673  0.4887  0.7112
 2070WAT      O 6611   0.765   7.062   6.185 -0.0496  0.2969  0.2621
 2070WAT     H1 6612   0.808   7.088   6.266 -0.1592 -0.7912  0.6873
 2070WAT     H2 6613   0.835   7.025   6.132  0.0017  0.9092 -0.1093
 2071WAT      O 6614   5.316   2.620   0.603  0.6026  0.1001  0.1831
 2071WAT     H1 6615   5.291   2.553   0.539  0.4341 -2.5061  2.7757
 2071WAT     H2 6616   5.410   2.634   0.587 -0.1060  2.3245 -2.9173
 2072WAT      O 6617   2.790   5.910   4.898  0.4421  0.0176 -0.3061
 2072WAT     H1 6618   2.836   5.885   4.978 -1.7306  0.1349  1.0635
 2072WAT     H2 6619   2.698   5.910   4.922 -0.2829  0.3785 -2.7504
 2073WAT      O 6620   6.132   1.499   5.338  0.0145  0.3739 -0.0731
 2073WAT     H1 6621   6.171   1.439   5.275 -0.9867  1.5618 -1.9060
 2073WAT     H2 6622   6.090   1.441   5.403  2.2836 -0.8793  0.3929
 2074WAT      O 6623   2.943   0.227   5.565 -0.1947 -0.4262  0.1884
 2074WAT     H1 6624   2.856   0.198   5.592 -0.7413  0.0931 -0.9343
 2074WAT     H2 6625   2.931   0.259   5.476  1.0408  0.1780  0.2135
 2075WAT      O 6626   3.507   6.144   2.828 -0.0091  0.7168  0.3573
 2075WAT     H1 6627   3.572   6.155   2.759  0.1464  0.4789  0.4651
 2075WAT     H2 6628   3.543   6.192   2.902  0.2682  0.2010  0.5629
 2076WAT      O 6629   7.216   1.959   4.281 -0.0405  0.6778  0.4810
 2076WAT     H1 6630   7.169   2.040   4.264  0.2149  0.7348  0.0259
 2076WAT     H2 6631   7.292   1.985   4.333  0.7300  0.9229 -0.7354
 2077WAT      O 6632   3.946   1.715   0.910  0.5528  0.1716 -0.0530
 2077WAT     H1 6633   3.976   1.653   0.976  3.6293  1.4081 -0.1278
 2077WAT     H2 6634   3.857   1.686   0.888  0.8990 -2.5894  1.7401
 2078WAT      O 6635   1.153   2.386   1.872 -0.0730  0.2458 -0.0858
 2078WAT     H1 6636   1.227   2.433   1.911  0.1988 -0.5130  0.3189
 2078WAT     H2 6637   1.097   2.456   1.839  0.1389  0.8849  0.8394
 2079WAT      O 6638   5.425   4.025   5.986 -0.5547 -0.1315  1.0946
 2079WAT     H1 6639   5.517   4.032   6.009 -0.5790  0.4083  1.0254
 2079WAT     H2 6640   5.411   3.931   5.974  0.7832 -0.0401 -2.1661
 2080WAT      O 6641   0.564   3.566   5.072  0.0836  0.2035  0.2475
 2080WAT     H1 6642   0.478   3.525   5.067 -0.4942  1.5059 -2.1866
 2080WAT     H2 6643   0.549   3.649   5.117  0.1964  0.1309  0.4201
 2081WAT      O 6644   3.783   4.747   2.795 -0.1259 -0.5554 -0.2664
 2081WAT     H1 6645   3.766   4.712   2.883  0.9041 -0.3768  0.0191
 2081WAT     H2 6646   3.778   4.842   2.806  2.1359 -0.4267  0.1086
 2082WAT      O 6647   1.496   6.321   3.482 -0.1015 -0.4655  0.2593
 2082WAT     H1 6648   1.474   6.357   3.567 -0.5233  1.5533 -0.6388
 2082WAT     H2 6649   1.414   6.287   3.447 -0.5006  1.0885 -0.3837
 2083WAT      O 6650   2.535   1.769   2.830 -0.2616  0.0463  0.4654
 2083WAT     H1 6651   2.485   1.693   2.857 -0.9468  0.0323 -0.7830
 2083WAT     H2 6652   2.623   1.753   2.864 -0.5544 -0.9956  0.7569
 2084WAT      O 6653   6.430   4.533   0.625 -0.3764 -0.3500  0.6771
 2084WAT     H1 6654   6.427   4.484   0.707 -0.5676  0.4259  1.1432
 2084WAT     H2 6655   6.506   4.591   0.635 -0.5746 -0.0453  0.4234
 2085WAT      O 6656   1.536   2.751   0.283 -0.4104  0.5094  0.4396
 2085WAT     H1 6657   1.459   2.721   0.332 -0.8246  1.8130  0.6459
 2085WAT     H2 6658   1.528   2.846   0.283  0.6226  0.6183 -0.5097
 2086WAT      O 6659   4.029   6.848   1.519  0.6393  0.2584  0.7747
 2086WAT     H1 6660   4.004   6.916   1.582  1.8224  0.2176  1.2981
 2086WAT     H2 6661   3.952   6.840   1.462 -0.2887  0.6039  1.9363
 2087WAT      O 6662   5.084   2.467   5.120  0.0727 -0.4115  0.1240
 2087WAT     H1 6663   5.063   2.409   5.194  0.1496 -0.4915  0.0836
 2087WAT     H2 6664   5.018   2.448   5.055 -0.3170  0.0411  0.3777
 2088WAT      O 6665   2.576   6.246   4.255  0.2923 -0.1832 -0.0242
 2088WAT     H1 6666   2.657   6.273   4.297 -0.0855 -0.2432  0.7511
 2088WAT     H2 6667   2.520   6.216   4.326  0.8667 -3.6222 -0.8687
 2089WAT      O 6668   6.163   5.471   0.109  0.0189 -0.2162 -0.0190
 2089WAT     H1 6669   6.163   5.566   0.124  0.8748  0.0612 -1.6179
 2089WAT     H2 6670   6.182   5.433   0.195  0.1346  1.0668  0.5410
 2090WAT      O 6671   6.732   6.487   3.662 -0.0662  0.0973 -0.1546
 2090WAT     H1 6672   6.733   6.429   3.738 -0.1652 -0.4186 -0.5385
 2090WAT     H2 6673   6.682   6.563   3.690  0.2186  0.0798  0.4162
 2091WAT      O 6674   1.386   2.466   2.853 -0.0469 -0.3775  0.2879
 2091WAT     H1 6675   1.441   2.529   2.807  2.0840 -0.7089  2.2121
 2091WAT     H2 6676   1.332   2.520   2.911  0.1764 -0.2180  0.3453
 2092WAT      O 6677   3.198   3.490   4.062  0.0590  0.7345  0.4687
 2092WAT     H1 6678   3.111   3.504   4.098  0.5851  1.0590  1.6713
 2092WAT     H2 6679   3.238   3.426   4.121  0.6599  0.6435 -0.0303
 2093WAT      O 6680   1.645   2.199   4.195 -0.2546 -0.1812 -0.3423
 2093WAT     H1 6681   1.568   2.202   4.139 -0.6453  0.2218  0.2057
 2093WAT     H2 6682   1.616   2.150   4.272 -0.4237  1.2433  0.5310
 2094WAT      O 6683   6.784   0.301   2.124  0.4510 -0.0690  0.3863
 2094WAT     H1 6684   6.698   0.281   2.088  1.3609 -0.5554 -1.6262
 2094WAT     H2 6685   6.832   0.219   2.120  0.7066 -0.0685  2.4899
 2095WAT      O 6686   3.291   5.704   2.855  0.2856  0.2468 -0.3415
 2095WAT     H1 6687   3.371   5.756   2.850 -0.2981  1.3128  0.8790
 2095WAT     H2 6688   3.222   5.768   2.870 -0.4237 -0.8963  1.5728
 2096WAT      O 6689   4.112   4.821   6.209  0.4028  0.6188 -0.6257
 2096WAT     H1 6690   4.082   4.903   6.246 -1.1499  0.8074 -2.1635
 2096WAT     H2 6691   4.195   4.802   6.254  1.0815  3.2750 -0.6240
 2097WAT      O 6692   2.935   4.082   5.903  0.0784 -0.0448 -0.4589
 2097WAT     H1 6693   3.021   4.098   5.943  0.0023 -0.8731  0.0616
 2097WAT     H2 6694   2.875   4.138   5.953  0.3384  0.7097 -0.9738
 2098WAT      O 6695   2.279   1.291   0.192 -0.5212 -0.3399  0.1511
 2098WAT     H1 6696   2.298   1.379   0.223 -1.5367 -0.1514  0.2735
 2098WAT     H2 6697   2.288   1.236   0.269 -2.2681  0.0194  0.6630
 2099WAT      O 6698   7.096   5.709   0.241 -0.7831  0.0712 -0.3619
 2099WAT     H1 6699   7.044   5.773   0.290  1.2247  1.1629  0.4487
 2099WAT     H2 6700   7.056   5.625   0.263 -0.6737  0.6242  2.3349
 2100WAT      O 6701   1.787   4.344   0.693  0.2262  0.5015  0.3717
 2100WAT     H1 6702   1.772   4.361   0.786  3.4221  2.0862  0.7102
 2100WAT     H2 6703   1.871   4.384   0.674 -0.1493 -0.0666 -3.1788
 2101WAT      O 6704   7.482   5.790   5.675 -0.2946 -0.9543  0.2577
 2101WAT     H1 6705   7.475   5.872   5.725 -1.4575 -0.4338 -0.7099
 2101WAT     H2 6706   7.572   5.762   5.688  0.2354  0.6744  0.3296
 2102WAT      O 6707   3.920   2.606   4.042 -0.7148 -0.1743 -0.4008
 2102WAT     H1 6708   3.877   2.546   4.102  1.1463 -0.3295  0.8736
 2102WAT     H2 6709   3.889   2.581   3.955  1.5568 -4.4764 -0.2072
 2103WAT      O 6710   0.799   0.190   3.952  0.3954  0.2870 -0.3520
 2103WAT     H1 6711   0.747   0.110   3.943  0.3564  0.1128  1.2614
 2103WAT     H2 6712   0.801   0.227   3.863  1.5886 -2.2067 -1.4878
 2104WAT      O 6713   1.199   5.861   6.036  0.0533 -0.0968  0.1440
 2104WAT     H1 6714   1.203   5.767   6.055  2.2079 -0.1501 -0.3619
 2104WAT     H2 6715   1.181   5.902   6.121 -0.5065 -0.9144  0.4364
 2105WAT      O 6716   3.428   4.029   5.146 -0.0372  0.0819  0.1264
 2105WAT     H1 6717   3.348   3.993   5.182  2.0180 -1.3598  3.7411
 2105WAT     H2 6718   3.443   4.110   5.195  0.8053  0.2412 -0.3602
 2106WAT      O 6719   3.889   1.856   1.763  0.1936  0.3677  0.6571
 2106WAT     H1 6720   3.879   1.951   1.775 -1.2237  0.3285  0.0487
 2106WAT     H2 6721   3.863   1.818   1.847 -0.0803  0.4964  0.6335
 2107WAT      O 6722   3.583   5.184   1.624  0.6430  0.0231  0.2618
 2107WAT     H1 6723   3.529   5.205   1.547  0.1317 -0.0870  0.5831
 2107WAT     H2 6724   3.590   5.088   1.622 -0.9744 -0.1566  1.3917
 2108WAT      O 6725   0.057   3.124   2.731 -0.1034  0.2962  0.2751
 2108WAT     H1 6726   0.065   3.067   2.655 -0.1303 -0.7236  1.0252
 2108WAT     H2 6727   0.064   3.213   2.695 -0.4516 -0.1547 -0.9514
 2109WAT      O 6728   4.263   4.238   5.312  0.5651  0.4348  0.2425
 2109WAT     H1 6729   4.273   4.276   5.399 -0.5458  0.7506  0.2506
 2109WAT     H2 6730   4.208   4.160   5.326  0.1434  0.6466 -0.2060
 2110WAT      O 6731   5.764   0.722   2.242  0.1267  0.4420  0.1803
 2110WAT     H1 6732   5.801   0.727   2.330 -0.3862  2.0766  0.3253
 2110WAT     H2 6733   5.691   0.660   2.250 -0.0252  0.7159  0.9413
 2111WAT      O 6734   4.903   5.423   0.687 -0.2341  0.4198 -0.3737
 2111WAT     H1 6735   4.984   5.468   0.712  0.2221 -0.4602 -0.2540
 2111WAT     H2 6736   4.854   5.416   0.769  0.7485 -1.4177  0.0943
 2112WAT      O 6737   2.145   2.773   0.147  0.7936 -0.4115 -0.0877
 2112WAT     H1 6738   2.057   2.745   0.124  0.6906 -1.7550  1.6669
 2112WAT     H2 6739   2.141   2.787   0.242  2.0448  1.1949 -0.2343
 2113WAT      O 6740   2.129   4.049   4.132  0.0051 -0.1136  0.0186
 2113WAT     H1 6741   2.196   4.017   4.072  1.6927  2.1650  0.5353
 2113WAT     H2 6742   2.153   4.011   4.217  1.3561  1.4758  0.4103
 2114WAT      O 6743   3.844   3.708   5.256 -0.2888 -0.3158  0.2315
 2114WAT     H1 6744   3.760   3.701   5.210 -0.6629  1.0882  0.6410
 2114WAT     H2 6745   3.906   3.734   5.188 -0.2527 -0.9848  0.0007
 2115WAT      O 6746   6.641   1.199   0.788  0.0539 -0.0267  0.3265
 2115WAT     H1 6747   6.590   1.145   0.848  0.0523 -1.2806 -0.7609
 2115WAT     H2 6748   6.723   1.152   0.776  0.0076  0.1342 -0.7348
 2116WAT      O 6749   6.418   0.927   5.847  0.2700 -0.6461 -0.2292
 2116WAT     H1 6750   6.367   0.992   5.895 -0.3020 -1.2172 -0.0507
 2116WAT     H2 6751   6.505   0.930   5.889  0.2402 -0.0376 -0.1971
 2117WAT      O 6752   6.959   1.349   5.929  0.2412 -0.2927 -0.1703
 2117WAT     H1 6753   6.867   1.366   5.909  0.0061 -0.3760  0.7539
 2117WAT     H2 6754   6.967   1.371   6.022  0.8348 -1.5879  0.1008
 2118WAT      O 6755   1.561   0.144   0.151 -0.3125 -0.0016  0.1029
 2118WAT     H1 6756   1.467   0.162   0.162 -0.8004 -1.6088 -1.0492
 2118WAT     H2 6757   1.590   0.117   0.238 -1.1163 -0.3020  0.2863
 2119WAT      O 6758   5.680   1.995   3.495  0.1143  0.7659  0.2044
 2119WAT     H1 6759   5.688   1.907   3.533  0.7338  1.6897  2.3348
 2119WAT     H2 6760   5.768   2.014   3.460 -0.5666 -0.2690 -2.3264
 2120WAT      O 6761   1.034   5.902   0.284 -0.3268  0.3425  0.3580
 2120WAT     H1 6762   1.112   5.957   0.273 -0.9436  1.3338  0.7919
 2120WAT     H2 6763   1.026   5.888   0.378 -1.0921  0.9008  0.3903
 2121WAT      O 6764   1.896   0.036   3.349 -0.0815 -0.3044  0.3429
 2121WAT     H1 6765   1.840   0.113   3.341 -1.2449 -1.1753 -0.1227
 2121WAT     H2 6766   1.869  -0.004   3.432  1.3044  0.3653  1.1634
 2122WAT      O 6767   6.489   3.973   1.893  0.1381 -0.2302  0.8056
 2122WAT     H1 6768   6.510   3.952   1.984  0.7166  2.1414  1.2736
 2122WAT     H2 6769   6.531   4.058   1.878 -0.6713 -0.1803 -1.4140
 2123WAT      O 6770   5.037   7.194   3.923 -0.2407  0.2449 -0.0223
 2123WAT     H1 6771   4.977   7.186   3.849 -1.7567 -1.2405  1.2981
 2123WAT     H2 6772   5.124   7.183   3.885 -1.0900 -2.7086 -1.3440
 2124WAT      O 6773   7.108   0.786   4.336  1.0157 -0.0870 -0.3034
 2124WAT     H1 6774   7.028   0.760   4.382  0.9914 -0.9390 -0.8147
 2124WAT     H2 6775   7.143   0.859   4.388 -0.2125  0.4566 -0.2150
 2125WAT      O 6776   3.922   3.074   3.123 -0.3085 -0.0186 -0.4811
 2125WAT     H1 6777   3.974   3.105   3.049  0.9277 -2.0645 -0.5495
 2125WAT     H2 6778   3.873   2.999   3.088 -2.7504  1.3214 -0.1840
 2126WAT      O 6779   1.604   1.546   1.199 -0.1120 -0.1230  0.4071
 2126WAT     H1 6780   1.533   1.494   1.235 -0.8980  2.1167  2.3178
 2126WAT     H2 6781   1.684   1.508   1.237 -0.6419 -0.0925  1.5839
 2127WAT      O 6782   7.416   3.638   2.962  0.2072 -0.0353 -0.1374
 2127WAT     H1 6783   7.423   3.646   3.058  0.0608 -0.4078 -0.0941
 2127WAT     H2 6784   7.323   3.648   2.944  0.0838 -1.0784 -0.1297
 2128WAT      O 6785   7.233   6.926   4.545 -0.0071 -1.1660 -0.2181
 2128WAT     H1 6786   7.199   7.014   4.532  0.3378 -1.1349 -0.9729
 2128WAT     H2 6787   7.323   6.939   4.576 -0.8665 -1.2378  2.5641
 2129WAT      O 6788   7.128   2.063   6.136  0.1005  0.5134 -0.9026
 2129WAT     H1 6789   7.181   1.998   6.182 -2.0656  0.5457  1.8713
 2129WAT     H2 6790   7.084   2.013   6.067 -0.5969 -0.7616  0.4183
 2130WAT      O 6791   0.189   2.850   3.628  0.9933  0.2261 -0.1256
 2130WAT     H1 6792   0.135   2.786   3.582  2.0590 -0.4325 -0.5018
 2130WAT     H2 6793   0.144   2.865   3.711 -0.6888  1.0264 -1.1222
 2131WAT      O 6794   1.229   7.129   2.141 -0.1151 -0.1065 -0.1386
 2131WAT     H1 6795   1.318   7.097   2.151 -0.8187 -2.0374  0.4007
 2131WAT     H2 6796   1.205   7.161   2.227  0.4776  1.6698 -0.6016
 2132WAT      O 6797   1.410   6.783   0.225 -0.0641  0.1623  0.2168
 2132WAT     H1 6798   1.394   6.694   0.193 -0.2821  0.7843 -1.5278
 2132WAT     H2 6799   1.365   6.786   0.309 -0.3034 -1.2906  0.1737
 2133WAT      O 6800   1.677   2.519   0.790  0.3292  0.5235  0.1610
 2133WAT     H1 6801   1.709   2.436   0.754  0.2873  0.6102 -0.0821
 2133WAT     H2 6802   1.755   2.564   0.821  0.4424  0.7247 -0.4075
 2134WAT      O 6803   6.985   3.623   0.266  0.3102  0.1144 -0.5806
 2134WAT     H1 6804   6.972   3.699   0.209 -1.2556 -0.2800 -0.8104
 2134WAT     H2 6805   6.927   3.556   0.229  1.5315 -1.1485 -0.2862
 2135WAT      O 6806   2.810   6.575   5.665 -0.0668  0.0343 -0.3241
 2135WAT     H1 6807   2.718   6.548   5.673 -0.5859  1.3402 -1.5182
 2135WAT     H2 6808   2.859   6.495   5.684 -1.4824 -1.1057 -1.1787
 2136WAT      O 6809   1.882   5.675   4.190  0.7001 -0.1666  0.2950
 2136WAT     H1 6810   1.939   5.689   4.114 -0.6937  1.2889 -0.5454
 2136WAT     H2 6811   1.928   5.611   4.243  1.5054 -1.6305 -2.0197
 2137WAT      O 6812   0.024   6.127   0.165  0.4547  0.1700 -0.6845
 2137WAT     H1 6813  -0.051   6.085   0.123  0.0365  0.2077  0.0146
 2137WAT     H2 6814  -0.000   6.132   0.257  1.2345  0.3730 -0.4909
 2138WAT      O 6815   0.704   5.602   0.388 -0.1108  0.1362  0.0910
 2138WAT     H1 6816   0.734   5.655   0.462 -0.5555 -0.6930  0.8875
 2138WAT     H2 6817   0.740   5.646   0.311  0.2564  1.0924  0.7839
 2139WAT      O 6818   6.291   2.070   1.004  0.3806  0.0738 -0.0125
 2139WAT     H1 6819   6.255   2.008   1.067 -0.7463 -0.2287 -0.9354
 2139WAT     H2 6820   6.320   2.144   1.058 -1.3224  0.1943  0.8203
 2140WAT      O 6821   7.350   4.662   5.836  0.3240 -0.2801  0.0736
 2140WAT     H1 6822   7.397   4.690   5.758  0.5601  1.0088  0.6554
 2140WAT     H2 6823   7.417   4.650   5.903 -0.0668  1.0324  0.7503
 2141WAT      O 6824   0.145   6.579   2.279  0.4888  0.3072  0.1498
 2141WAT     H1 6825   0.074   6.515   2.278  0.8229 -0.0682  0.2386
 2141WAT     H2 6826   0.108   6.657   2.238  0.1194  0.0099 -0.0852
 2142WAT      O 6827   0.463   6.977   1.701  0.6868  0.1855  0.3174
 2142WAT     H1 6828   0.426   6.890   1.716  0.8195  0.1983  0.7453
 2142WAT     H2 6829   0.493   6.975   1.610 -0.0148  0.0464  0.0821
 2143WAT      O 6830   3.781   0.798   2.325 -0.3138 -0.7331 -0.1757
 2143WAT     H1 6831   3.748   0.826   2.410 -0.5235  2.1618 -1.1009
 2143WAT     H2 6832   3.829   0.717   2.343  0.4124  0.2362  2.8341
 2144WAT      O 6833   6.339   1.021   4.566  0.5746  0.2557 -0.3576
 2144WAT     H1 6834   6.360   1.039   4.475  0.8319 -1.6898 -0.7306
 2144WAT     H2 6835   6.247   1.046   4.575  0.5666  0.5097 -1.1222
 2145WAT      O 6836   5.032   5.079   5.377 -0.8536  0.6249 -0.2276
 2145WAT     H1 6837   5.094   5.011   5.405 -1.2877 -0.5852 -2.0451
 2145WAT     H2 6838   5.027   5.139   5.452 -1.2735 -1.9108  1.9400
 2146WAT      O 6839   6.002   2.743   3.776  0.1339 -0.2485 -0.1159
 2146WAT     H1 6840   5.952   2.824   3.766 -1.1859 -0.9459  0.4845
 2146WAT     H2 6841   6.061   2.760   3.850 -0.3916  0.0648  0.2422
 2147WAT      O 6842   3.933   5.241   2.019  0.1251 -0.3466  0.2498
 2147WAT     H1 6843   3.893   5.310   1.965 -0.6363 -0.9505  0.0098
 2147WAT     H2 6844   3.909   5.265   2.109  1.1067  0.4788  0.3042
 2148WAT      O 6845   1.730   6.209   4.629 -0.7184 -0.4754  0.4590
 2148WAT     H1 6846   1.805   6.265   4.609 -0.2887 -1.5297 -1.1388
 2148WAT     H2 6847   1.734   6.196   4.723  0.6093  0.1841  0.5209
 2149WAT      O 6848   2.962   6.464   4.562 -0.0323  0.2990 -0.6053
 2149WAT     H1 6849   2.929   6.547   4.597 -3.0730 -0.6043 -1.0031
 2149WAT     H2 6850   2.954   6.403   4.635  3.2138  0.4673  0.0231
 2150WAT      O 6851   2.151   3.978   5.159 -0.5198 -0.1315  0.7719
 2150WAT     H1 6852   2.118   3.990   5.248  0.9287 -0.7443  1.4177
 2150WAT     H2 6853   2.117   3.893   5.132 -2.5636  0.8649 -0.0470
 2151WAT      O 6854   3.991   5.745   1.437 -0.4983  0.4066  0.4648
 2151WAT     H1 6855   3.995   5.690   1.515  0.9483  0.0163  0.1575
 2151WAT     H2 6856   4.053   5.817   1.455 -0.1086  0.2813 -0.3320
 2152WAT      O 6857   3.085   5.880   2.771  0.5089 -0.6709  0.0927
 2152WAT     H1 6858   3.104   5.967   2.807  1.1908 -1.2386  1.1272
 2152WAT     H2 6859   3.096   5.891   2.677 -2.0929  1.0478 -0.1105
 2153WAT      O 6860   5.856   6.204   3.530  0.2903  0.6689 -0.0388
 2153WAT     H1 6861   5.830   6.129   3.582  1.7404 -0.4506 -0.8715
 2153WAT     H2 6862   5.899   6.263   3.592  0.4423  0.1545  0.3503
 2154WAT      O 6863   6.360   6.448   4.257 -0.4535  0.1870  0.6532
 2154WAT     H1 6864   6.337   6.385   4.326  0.5734 -0.8759  0.0633
 2154WAT     H2 6865   6.402   6.520   4.303 -1.4702  0.3735  1.3241
 2155WAT      O 6866   0.067   0.936   4.564 -0.5660  0.1612  0.0182
 2155WAT     H1 6867   0.048   0.845   4.542  2.1510 -0.2939 -0.8047
 2155WAT     H2 6868   0.064   0.939   4.659 -1.2897 -0.6138  0.0330
 2156WAT      O 6869   5.649   4.096   6.180  0.0759 -0.3794 -0.6409
 2156WAT     H1 6870   5.638   4.023   6.241 -0.0548  1.2796  1.4790
 2156WAT     H2 6871   5.665   4.172   6.237  2.1849  0.9241 -2.8063
 2157WAT      O 6872   0.756   1.864   1.185  0.0788  0.6002  0.0035
 2157WAT     H1 6873   0.729   1.820   1.265  0.0879 -0.2102 -0.4325
 2157WAT     H2 6874   0.837   1.910   1.209 -0.7759  1.7153  0.8801
 2158WAT      O 6875   3.976   3.312   2.997 -0.2251  0.2463 -0.0323
 2158WAT     H1 6876   4.061   3.312   2.952 -0.5470 -0.0368 -0.6648
 2158WAT     H2 6877   3.975   3.392   3.048  0.1886  0.5424 -0.4803
 2159WAT      O 6878   5.589   2.006   1.018  0.1365  0.6195 -0.0060
 2159WAT     H1 6879   5.564   1.917   1.043  0.8756  0.2194 -0.6365
 2159WAT     H2 6880   5.671   1.995   0.969  0.5007  1.6951  0.3228
 2160WAT      O 6881   3.260   7.036   3.891  0.0672 -0.2152  0.0632
 2160WAT     H1 6882   3.207   7.039   3.970  1.4882 -0.8069  1.0899
 2160WAT     H2 6883   3.349   7.016   3.922  1.2224  2.1269 -1.3976
 2161WAT      O 6884   1.647  -0.001   1.768 -0.6913  0.1741 -0.0701
 2161WAT     H1 6885   1.635   0.091   1.793  0.9572  0.6551 -0.9166
 2161WAT     H2 6886   1.674  -0.045   1.849 -1.3002  0.4612  0.2961
 2162WAT      O 6887   3.615   6.679   5.296  0.0786 -0.9080  0.2278
 2162WAT     H1 6888   3.694   6.630   5.275  2.7041  2.0870  2.1012
 2162WAT     H2 6889   3.580   6.636   5.374  1.4606 -0.7583  0.9594
 2163WAT      O 6890   4.043   5.570   2.009 -0.8076 -0.1932 -0.0448
 2163WAT     H1 6891   4.014   5.564   2.100  0.4175  1.2974  0.4844
 2163WAT     H2 6892   3.965   5.546   1.957 -2.2709  1.3545  1.3408
 2164WAT      O 6893   0.409   5.770   2.375 -0.5563 -0.4210  0.4361
 2164WAT     H1 6894   0.352   5.708   2.421 -2.1996 -0.3809 -1.4090
 2164WAT     H2 6895   0.351   5.842   2.351  0.2152 -0.4211 -1.6020
 2165WAT      O 6896   0.327   6.859   4.399  0.0632  0.2800  0.2702
 2165WAT     H1 6897   0.417   6.874   4.372 -0.3463  0.7685 -0.8758
 2165WAT     H2 6898   0.294   6.793   4.338 -0.5202  0.5224  0.3175
 2166WAT      O 6899   0.921   2.774   5.382  0.1696 -0.1444 -0.2262
 2166WAT     H1 6900   0.977   2.850   5.400  0.4668 -0.7719  1.8046
 2166WAT     H2 6901   0.839   2.812   5.351  0.7236  0.9372 -0.4333
 2167WAT      O 6902   5.316   5.914   3.488 -0.2176 -0.2826 -0.6405
 2167WAT     H1 6903   5.224   5.893   3.506  0.1092 -2.9889 -1.7334
 2167WAT     H2 6904   5.312   5.984   3.422 -1.4666 -0.0287 -0.3235
 2168WAT      O 6905   4.775   2.926   5.290  0.3269 -0.2582  0.4149
 2168WAT     H1 6906   4.718   2.941   5.365 -1.2619 -0.1408 -0.7538
 2168WAT     H2 6907   4.777   2.831   5.280 -1.8287 -0.2006 -1.0665
 2169WAT      O 6908   2.947   2.968   3.993  0.0921  0.4313 -0.1214
 2169WAT     H1 6909   2.922   2.938   4.081  1.7366  0.3106  0.3439
 2169WAT     H2 6910   2.943   3.063   3.999  1.1767  0.4688  0.4426
 2170WAT      O 6911   5.410   6.494   3.562 -0.0971  0.0901 -0.2811
 2170WAT     H1 6912   5.412   6.401   3.586 -1.3466 -0.3587 -1.7901
 2170WAT     H2 6913   5.394   6.540   3.644  0.3378 -1.0303  0.4537
 2171WAT      O 6914   1.752   6.477   5.029  0.4547 -0.5909  0.2325
 2171WAT     H1 6915   1.663   6.496   5.001  0.4064  1.0104  1.3476
 2171WAT     H2 6916   1.744   6.402   5.087 -0.1070 -0.7603 -0.0639
 2172WAT      O 6917   3.088   7.002   1.799  0.0064 -0.2301  0.3926
 2172WAT     H1 6918   3.089   7.066   1.870  0.5383  1.9566 -1.4591
 2172WAT     H2 6919   3.181   6.990   1.778 -0.1833  1.1328 -1.5080
 2173WAT      O 6920   1.431   3.484   0.873 -0.5760  0.2128 -0.2955
 2173WAT     H1 6921   1.473   3.555   0.824 -1.1001  0.0419 -1.0019
 2173WAT     H2 6922   1.460   3.404   0.830 -1.6340  0.0917 -0.8097
 2174WAT      O 6923   1.083   5.089   4.435 -0.6395  0.4889  0.3548
 2174WAT     H1 6924   1.093   5.052   4.347 -0.4275 -0.5711  0.8162
 2174WAT     H2 6925   1.015   5.156   4.425 -1.2310 -0.2144 -0.4466
 2175WAT      O 6926   1.111   5.750   2.818 -0.1168 -0.1382  0.3422
 2175WAT     H1 6927   1.155   5.723   2.898  1.4235 -0.3785 -0.5513
 2175WAT     H2 6928   1.017   5.738   2.837  0.2451 -0.8204  1.8473
 2176WAT      O 6929   0.279   2.133   5.538  0.3008  0.5980  0.5520
 2176WAT     H1 6930   0.263   2.222   5.507  1.2971  1.5187  2.5040
 2176WAT     H2 6931   0.312   2.144   5.627 -1.2740 -1.8010  1.5609
 2177WAT      O 6932   0.339   5.713   4.429 -0.4722 -0.0464 -0.2694
 2177WAT     H1 6933   0.283   5.669   4.493  0.4896 -0.3324  0.3956
 2177WAT     H2 6934   0.398   5.767   4.482  0.1829 -0.1123 -0.9256
 2178WAT      O 6935   4.771   1.442   1.597  0.7000 -0.5740 -0.1445
 2178WAT     H1 6936   4.831   1.498   1.548 -0.6254  1.6232  0.5948
 2178WAT     H2 6937   4.799   1.449   1.688  1.0732 -1.8922 -0.1381
 2179WAT      O 6938   5.034   5.321   2.011  0.3770  0.4902 -0.5887
 2179WAT     H1 6939   5.030   5.391   2.075  0.8359 -0.4089  0.4451
 2179WAT     H2 6940   5.066   5.245   2.059 -0.4316 -0.5310 -1.5982
 2180WAT      O 6941   6.300   5.000   4.544 -0.1718 -0.2880 -0.6702
 2180WAT     H1 6942   6.370   5.064   4.531  1.8737 -1.6904  2.2473
 2180WAT     H2 6943   6.251   5.033   4.619  0.8511 -1.9450  0.8160
 2181WAT      O 6944   6.249   2.737   5.931 -0.6550 -0.3653 -0.1227
 2181WAT     H1 6945   6.294   2.655   5.950  0.5120  0.0947 -0.8085
 2181WAT     H2 6946   6.187   2.748   6.003  0.7616 -0.7115  1.1961
 2182WAT      O 6947   6.732   5.162   1.896  0.7812 -0.4009 -0.2667
 2182WAT     H1 6948   6.787   5.115   1.959  1.7877  2.5330  1.2201
 2182WAT     H2 6949   6.655   5.189   1.946  1.6217  2.0185 -0.1552
 2183WAT      O 6950   7.090   5.910   2.239  0.4226 -0.1809  0.1757
 2183WAT     H1 6951   7.135   5.965   2.303 -1.1741  0.8694  0.4779
 2183WAT     H2 6952   7.084   5.965   2.160  2.3880 -1.4664 -0.9401
 2184WAT      O 6953   0.701   3.087   5.307 -0.6015  0.8140  0.3369
 2184WAT     H1 6954   0.755   3.096   5.228 -1.5046  0.5334 -0.3365
 2184WAT     H2 6955   0.613   3.111   5.278 -1.9586 -3.6648  0.0013
 2185WAT      O 6956   0.434   1.640   1.928 -0.0144  0.5342  0.3882
 2185WAT     H1 6957   0.492   1.584   1.876  0.1091  1.0323 -0.0176
 2185WAT     H2 6958   0.489   1.674   1.999  0.3080  1.3188 -0.2198
 2186WAT      O 6959   6.325   1.337   0.902  0.3918 -0.0120  0.0962
 2186WAT     H1 6960   6.375   1.314   0.824 -1.8929  0.1885 -1.5281
 2186WAT     H2 6961   6.280   1.257   0.926 -0.5992  0.4569 -0.1426
 2187WAT      O 6962   0.613   4.161   4.851 -0.2538 -0.1750 -0.1254
 2187WAT     H1 6963   0.580   4.086   4.900 -0.5630 -0.2033 -0.3783
 2187WAT     H2 6964   0.568   4.236   4.889  0.6372 -0.0195  0.6625
 2188WAT      O 6965   0.702   0.082   0.131  0.2360  0.0478 -0.9539
 2188WAT     H1 6966   0.785   0.034   0.140 -0.2920 -0.5617  0.9286
 2188WAT     H2 6967   0.656   0.068   0.213 -1.4714  0.9486 -1.6985
 2189WAT      O 6968   2.095   6.523   1.399  0.0130 -0.1628 -0.0053
 2189WAT     H1 6969   2.128   6.546   1.312  0.0005  0.8993  0.2635
 2189WAT     H2 6970   2.167   6.474   1.440 -0.3668 -1.5977 -0.9790
 2190WAT      O 6971   0.176   5.617   4.914  0.3918 -0.3345 -0.2919
 2190WAT     H1 6972   0.214   5.700   4.943 -0.2477 -0.5501  1.2978
 2190WAT     H2 6973   0.090   5.642   4.880  0.6336 -0.2255 -0.8289
 2191WAT      O 6974   4.003   2.627   3.709  0.0591 -0.3841  1.0382
 2191WAT     H1 6975   4.091   2.590   3.705 -0.2026 -0.9938  0.4834
 2191WAT     H2 6976   3.946   2.550   3.711 -0.4996 -0.0240  0.0098
 2192WAT      O 6977   3.455   4.828   0.336  0.4474 -0.3111 -0.3877
 2192WAT     H1 6978   3.389   4.895   0.323 -1.0577 -1.6507  0.0866
 2192WAT     H2 6979   3.408   4.753   0.374  2.2927 -1.1733  0.3729
 2193WAT      O 6980   3.067   7.109   6.131 -0.3344 -0.1247 -0.2730
 2193WAT     H1 6981   3.111   7.027   6.110 -0.2755 -0.1178 -0.1761
 2193WAT     H2 6982   3.003   7.086   6.198 -1.0066 -0.2815 -0.9506
 2194WAT      O 6983   3.487   0.215   2.954 -0.4944 -0.2908 -0.2130
 2194WAT     H1 6984   3.450   0.145   3.007 -1.4559 -0.7227 -1.4098
 2194WAT     H2 6985   3.511   0.173   2.871 -2.9021  1.0847 -1.7303
 2195WAT      O 6986   3.308   0.721   5.559 -0.2996 -0.2094  0.8657
 2195WAT     H1 6987   3.289   0.801   5.609 -1.0992  0.2543 -0.1526
 2195WAT     H2 6988   3.393   0.738   5.518 -1.6372  1.2716 -1.5024
 2196WAT      O 6989   2.131   5.948   3.474 -0.3693 -0.0752 -1.1167
 2196WAT     H1 6990   2.059   5.939   3.536 -1.2235 -2.1349 -2.2884
 2196WAT     H2 6991   2.108   5.888   3.403  1.2482  1.1654 -2.7614
 2197WAT      O 6992   1.974   5.737   5.166 -0.1060 -0.4710 -0.1985
 2197WAT     H1 6993   1.884   5.758   5.190 -0.8462 -1.6575 -1.7528
 2197WAT     H2 6994   2.008   5.687   5.240 -0.8360 -0.2800  0.2674
 2198WAT      O 6995   1.125   7.035   4.798  0.2855  0.7835  0.2468
 2198WAT     H1 6996   1.033   7.053   4.776 -0.3051  0.1726  2.0645
 2198WAT     H2 6997   1.130   6.940   4.805  1.1426  0.7903 -0.0947
 2199WAT      O 6998   1.591   1.109   3.495  0.2659 -0.0926 -0.3670
 2199WAT     H1 6999   1.588   1.045   3.565 -0.0444 -0.0616 -0.3503
 2199WAT     H2 7000   1.521   1.171   3.516  1.4660  1.0611  0.3914
 2200WAT      O 7001   5.853   0.449   5.106 -0.4423  0.4516  0.4625
 2200WAT     H1 7002   5.851   0.373   5.165 -2.6362 -0.1144 -0.2196
 2200WAT     H2 7003   5.817   0.520   5.158 -3.0587 -0.2153 -0.2818
 2201WAT      O 7004   5.681   5.578   5.267  0.0106  0.4097  0.3853
 2201WAT     H1 7005   5.635   5.569   5.183  1.3656 -1.2118 -0.2230
 2201WAT     H2 7006   5.667   5.670   5.291 -0.5436  0.8830 -1.5396
 2202WAT      O 7007   3.583   5.197   3.530 -0.2217 -0.3308 -0.0809
 2202WAT     H1 7008   3.530   5.234   3.601 -1.4127 -1.5433 -0.2980
 2202WAT     H2 7009   3.519   5.161   3.468  0.8150  0.0278 -1.4129
 2203WAT      O 7010   3.444   5.273   0.037 -0.9491  0.1095  0.7342
 2203WAT     H1 7011   3.519   5.285   0.096 -0.4310 -0.3273  0.1676
 2203WAT     H2 7012   3.397   5.357   0.042 -1.1884 -0.0939  2.1417
 2204WAT      O 7013   0.899   0.807   4.587  0.4272  0.3193 -0.4046
 2204WAT     H1 7014   0.833   0.764   4.641  1.2390  0.4078  0.6995
 2204WAT     H2 7015   0.850   0.844   4.514 -1.0924  2.0816  1.3697
 2205WAT      O 7016   4.052   6.624   4.151 -0.4869 -0.2417  0.1422
 2205WAT     H1 7017   4.116   6.557   4.126 -0.1891  0.3033 -0.6205
 2205WAT     H2 7018   4.081   6.702   4.103 -0.7974  0.4426  1.0546
 2206WAT      O 7019   5.289   4.211   5.265 -0.4496  0.0113  0.6657
 2206WAT     H1 7020   5.234   4.241   5.337 -0.7186 -2.0095  1.3773
 2206WAT     H2 7021   5.373   4.190   5.307 -0.4460 -0.7151  0.3071
 2207WAT      O 7022   7.115   2.971   2.117  0.1956 -0.2416 -0.1362
 2207WAT     H1 7023   7.034   2.920   2.118  0.5109 -0.7332  0.7249
 2207WAT     H2 7024   7.159   2.943   2.037 -0.9548  0.8088 -1.1890
 2208WAT      O 7025   7.043   5.601   2.309  0.1888 -0.1168  0.6426
 2208WAT     H1 7026   7.069   5.619   2.399 -0.5032  0.2239  0.7879
 2208WAT     H2 7027   7.055   5.684   2.263 -0.0008 -0.1340  0.5593
 2209WAT      O 7028   2.486   0.515   3.562  0.1006  0.1056  0.6914
 2209WAT     H1 7029   2.518   0.468   3.486 -0.2803  1.1259 -0.1306
 2209WAT     H2 7030   2.470   0.604   3.530 -2.2701 -0.0013  1.3538
 2210WAT      O 7031   4.868   1.392   0.508 -0.0265 -0.0365  0.1868
 2210WAT     H1 7032   4.914   1.371   0.589 -0.1714  0.5136  0.4170
 2210WAT     H2 7033   4.840   1.483   0.519  0.9727  0.4467 -0.9374
 2211WAT      O 7034   4.789   1.711   2.522  0.1072  0.2661  0.1295
 2211WAT     H1 7035   4.868   1.746   2.562  0.0103  2.2287 -1.2498
 2211WAT     H2 7036   4.809   1.619   2.504  1.9371  0.6291  0.1510
 2212WAT      O 7037   0.659   5.187   5.986 -0.0592 -0.3920 -0.1363
 2212WAT     H1 7038   0.667   5.280   6.008  0.8185 -0.3402 -0.6420
 2212WAT     H2 7039   0.634   5.186   5.894 -0.0416 -0.6633 -0.1400
 2213WAT      O 7040   2.132   4.612   1.346 -0.5373  0.0805 -0.1993
 2213WAT     H1 7041   2.224   4.613   1.371 -0.5868 -0.0472 -0.0065
 2213WAT     H2 7042   2.090   4.558   1.413 -1.1836  2.1694  1.1642
 2214WAT      O 7043   6.992   5.714   2.575 -0.2015  0.0931  0.1912
 2214WAT     H1 7044   6.982   5.620   2.592  0.0357 -0.0561 -0.4773
 2214WAT     H2 7045   7.043   5.746   2.650 -0.8059 -0.1925  0.7310
 2215WAT      O 7046   5.120   0.746   5.051 -0.0222  0.0838  0.1509
 2215WAT     H1 7047   5.038   0.728   5.004 -0.8670  1.5738  0.9778
 2215WAT     H2 7048   5.093   0.753   5.143  1.4070 -1.6024  0.7389
 2216WAT      O 7049   0.431   2.195   4.468 -0.1188 -0.0443 -0.8709
 2216WAT     H1 7050   0.510   2.171   4.420  1.4821  0.1134  1.5660
 2216WAT     H2 7051   0.432   2.291   4.470  1.0571 -0.0458  1.2838
 2217WAT      O 7052   0.437   1.529   4.874 -0.5188 -0.0377 -0.4378
 2217WAT     H1 7053   0.367   1.518   4.810 -1.1891 -2.4573  0.5865
 2217WAT     H2 7054   0.428   1.619   4.904 -0.2379  1.1700 -3.5693
 2218WAT      O 7055   5.389   4.779   3.749  0.2672 -0.3549  0.5633
 2218WAT     H1 7056   5.469   4.755   3.702 -0.3801 -3.9839  0.9847
 2218WAT     H2 7057   5.319   4.771   3.684 -0.0463  0.3166  0.8045
 2219WAT      O 7058   1.332   3.976   3.260  0.3005  0.1491  0.2282
 2219WAT     H1 7059   1.315   4.036   3.187 -1.9276 -1.2668 -0.5264
 2219WAT     H2 7060   1.324   4.031   3.338 -0.3577  1.1085 -0.4784
 2220WAT      O 7061   0.598   0.539   0.859 -0.0986 -0.2253 -0.0366
 2220WAT     H1 7062   0.614   0.462   0.913  1.0399  0.6546  0.9712
 2220WAT     H2 7063   0.584   0.610   0.922  1.1083  0.8106 -0.8598
 2221WAT      O 7064   0.378   6.547   4.079  0.6608  0.6126  0.7789
 2221WAT     H1 7065   0.428   6.613   4.127  2.4680 -0.5628  0.6296
 2221WAT     H2 7066   0.389   6.467   4.130 -0.9368  0.2555  0.6128
 2222WAT      O 7067   0.948   5.033   1.465 -0.2165  0.4015 -0.2812
 2222WAT     H1 7068   1.034   5.018   1.425 -0.8833  1.6500 -2.3364
 2222WAT     H2 7069   0.964   5.024   1.559  1.8237 -0.9000 -0.6763
 2223WAT      O 7070   3.077   4.869   6.123  0.1827 -0.2969 -0.0561
 2223WAT     H1 7071   3.129   4.944   6.094 -0.3363  0.2433  0.3841
 2223WAT     H2 7072   3.129   4.830   6.194 -0.5952  1.0361  1.3030
 2224WAT      O 7073   6.733   2.488   0.642 -0.5270 -0.2011 -0.1014
 2224WAT     H1 7074   6.647   2.525   0.657 -0.0581  1.0547 -0.3981
 2224WAT     H2 7075   6.727   2.447   0.556 -0.5664  0.7045 -0.5366
 2225WAT      O 7076   4.842   5.629   0.193  0.2431 -0.1426 -0.2784
 2225WAT     H1 7077   4.834   5.577   0.114  0.0835 -1.3486  0.5039
 2225WAT     H2 7078   4.752   5.633   0.228  0.2660  0.5983 -0.2804
 2226WAT      O 7079   6.786   1.518   4.258  0.3260  0.7460  0.0139
 2226WAT     H1 7080   6.701   1.562   4.265  0.4799  1.4586 -1.9621
 2226WAT     H2 7081   6.776   1.438   4.310 -1.6324  0.7028 -0.3667
 2227WAT      O 7082   3.538   6.908   0.005  0.0802  0.4043  0.9594
 2227WAT     H1 7083   3.603   6.854   0.049  0.2377  0.6862  1.0809
 2227WAT     H2 7084   3.577   6.927  -0.081 -1.1916 -2.0037 -0.2253
 2228WAT      O 7085   6.958   5.414   2.138  0.0277  0.4284  0.2143
 2228WAT     H1 7086   6.997   5.458   2.213  0.9759 -0.4947  0.2689
 2228WAT     H2 7087   6.878   5.374   2.173  0.4782 -0.0205  0.7307
 2229WAT      O 7088   1.483   2.160   1.988 -0.3552 -0.1540 -0.2683
 2229WAT     H1 7089   1.424   2.229   2.020  1.4650  1.3257  0.0547
 2229WAT     H2 7090   1.483   2.094   2.058 -1.8044 -0.3335 -0.3982
 2230WAT      O 7091   0.447   4.842   1.798 -0.8875  0.2753 -0.5142
 2230WAT     H1 7092   0.357   4.810   1.797 -0.7097 -0.2428 -0.1531
 2230WAT     H2 7093   0.486   4.804   1.719 -0.2263 -1.7530  0.7195
 2231WAT      O 7094   5.724   4.473   0.310 -0.1607  0.1331  0.7217
 2231WAT     H1 7095   5.704   4.565   0.296 -0.3708  0.1193  0.9248
 2231WAT     H2 7096   5.715   4.460   0.405 -1.1405 -0.3313  0.5792
 2232WAT      O 7097   6.168   6.923   4.917  0.1904  0.5147 -0.5594
 2232WAT     H1 7098   6.229   6.991   4.944 -0.0164  1.0684 -1.4258
 2232WAT     H2 7099   6.188   6.908   4.824  1.9732 -2.4611  0.1687
 2233WAT      O 7100   2.229   4.424   0.320  0.5529  0.0954  0.0962
 2233WAT     H1 7101   2.270   4.400   0.403  0.1127  1.8158  0.8699
 2233WAT     H2 7102   2.137   4.401   0.331  0.8000 -1.2964 -0.6121
 2234WAT      O 7103   3.822   5.445   1.880  0.2989  0.3185 -0.1610
 2234WAT     H1 7104   3.755   5.512   1.866  0.8816  0.6523 -1.5766
 2234WAT     H2 7105   3.819   5.392   1.800 -1.2446 -2.4004  1.5572
 2235WAT      O 7106   2.204   4.434   5.081  0.2729 -0.1892  0.2271
 2235WAT     H1 7107   2.292   4.469   5.070  0.0702  0.4521  0.5757
 2235WAT     H2 7108   2.212   4.341   5.063  1.3137 -0.4215  1.7214
 2236WAT      O 7109   3.006   2.835   2.744 -0.3918 -0.3365  0.5720
 2236WAT     H1 7110   2.985   2.759   2.690 -1.5577  0.2004  0.2489
 2236WAT     H2 7111   3.088   2.811   2.787  0.3542 -0.9506 -1.0984
 2237WAT      O 7112   6.849   6.091   1.405 -0.3246  0.1016  0.1726
 2237WAT     H1 7113   6.814   6.003   1.419 -0.3419  0.0337 -0.2868
 2237WAT     H2 7114   6.940   6.077   1.380 -0.4950  0.1724 -0.5326
 2238WAT      O 7115   2.321   5.172   5.477 -0.3317  0.3037  0.1620
 2238WAT     H1 7116   2.329   5.116   5.400  1.3956  0.0320  0.5175
 2238WAT     H2 7117   2.363   5.124   5.548 -1.8162  0.5853  1.2981
 2239WAT      O 7118   1.253   1.261   2.662 -0.2998  0.2150 -0.0263
 2239WAT     H1 7119   1.224   1.254   2.753 -0.2860  1.8762  0.1339
 2239WAT     H2 7120   1.306   1.341   2.659 -0.1866  0.1178 -1.4608
 2240WAT      O 7121   2.463   0.737   2.442 -0.0334 -0.4883  0.3119
 2240WAT     H1 7122   2.522   0.798   2.399 -0.7488 -0.2359 -0.3325
 2240WAT     H2 7123   2.518   0.689   2.504  0.6115  0.5649  0.5792
 2241WAT      O 7124   6.145   0.051   5.845  0.4683 -0.4498 -0.3126
 2241WAT     H1 7125   6.132   0.037   5.751 -1.0679 -0.2522 -0.1642
 2241WAT     H2 7126   6.153  -0.037   5.882 -1.6595 -0.6969 -0.3177
 2242WAT      O 7127   2.736   0.710   1.386  0.0206  0.2237  0.3361
 2242WAT     H1 7128   2.789   0.630   1.391 -0.0307  0.1990  0.4854
 2242WAT     H2 7129   2.647   0.679   1.375  0.2565  0.2800 -2.1719
 2243WAT      O 7130   4.834   4.469   2.636  0.0820 -0.1943 -0.1404
 2243WAT     H1 7131   4.751   4.421   2.644  0.1079 -1.1350 -3.6736
 2243WAT     H2 7132   4.809   4.561   2.640 -0.9306 -0.4693  0.1990
 2244WAT      O 7133   0.674   5.659   1.516  0.0762  0.1004 -0.0520
 2244WAT     H1 7134   0.718   5.588   1.563 -0.7571 -0.1454  0.3739
 2244WAT     H2 7135   0.581   5.639   1.524 -0.1807  1.2770  0.1222
 2245WAT      O 7136   5.081   0.423   6.025  0.5134 -0.3449  0.1257
 2245WAT     H1 7137   5.079   0.398   6.118  0.3820  0.7353  0.4241
 2245WAT     H2 7138   5.101   0.517   6.026  1.6564 -0.5635 -0.9898
 2246WAT      O 7139   2.560   5.004   0.300  0.1324 -0.1733  0.2913
 2246WAT     H1 7140   2.568   5.085   0.351  1.7366  1.6093 -2.5126
 2246WAT     H2 7141   2.645   4.962   0.307 -0.2244 -0.8841  0.5151
 2247WAT      O 7142   6.699   5.003   0.581  0.3514  0.5650  1.0002
 2247WAT     H1 7143   6.752   4.950   0.640  2.1537 -0.2644 -1.2154
 2247WAT     H2 7144   6.630   4.944   0.552  0.3191  0.5143  1.1796
 2248WAT      O 7145   6.866   0.364   1.779  0.0106 -0.3513 -0.4041
 2248WAT     H1 7146   6.935   0.372   1.845  1.7719  0.9215 -2.2727
 2248WAT     H2 7147   6.855   0.269   1.767 -0.5589 -0.6108  1.8664
 2249WAT      O 7148   3.976   6.861   3.635  0.2453 -0.0053  0.1463
 2249WAT     H1 7149   3.991   6.783   3.689  0.9449 -0.9100 -1.3097
 2249WAT     H2 7150   3.883   6.878   3.645  0.5057  0.4964  2.4466
 2250WAT      O 7151   1.005   3.717   2.013  0.0204 -0.4303 -0.4408
 2250WAT     H1 7152   0.942   3.673   2.071 -2.6338  0.8174 -2.1784
 2250WAT     H2 7153   0.990   3.678   1.927  0.6613  0.8431 -1.1588
 2251WAT      O 7154   6.883   4.718   0.080  0.5049 -0.1222  0.7265
 2251WAT     H1 7155   6.938   4.658   0.031  0.7680  0.5360  0.2154
 2251WAT     H2 7156   6.834   4.661   0.140  0.4177 -0.8964 -0.0571
 2252WAT      O 7157   4.326   6.157   2.165 -0.2841  0.6151  0.2781
 2252WAT     H1 7158   4.297   6.096   2.097  1.0377 -0.7751  0.9011
 2252WAT     H2 7159   4.290   6.121   2.247  1.1140  0.2286  0.7417
 2253WAT      O 7160   3.657   0.407   3.412  0.1533 -0.1256  0.1227
 2253WAT     H1 7161   3.579   0.460   3.431  0.8212  1.5066 -1.3799
 2253WAT     H2 7162   3.692   0.384   3.498 -1.7467 -0.6067  0.8420
 2254WAT      O 7163   2.644   4.509   4.545  0.0521 -0.3378  0.5550
 2254WAT     H1 7164   2.592   4.428   4.537 -0.1385 -0.1721  0.1227
 2254WAT     H2 7165   2.724   4.491   4.496 -0.2709 -0.0308 -0.0904
 2255WAT      O 7166   7.514   2.781   4.888  0.1548  0.1683 -0.8119
 2255WAT     H1 7167   7.457   2.758   4.961  0.4813  1.9030  0.0491
 2255WAT     H2 7168   7.575   2.707   4.881 -0.4116 -0.4059  0.1122
 2256WAT      O 7169   7.288   0.525   4.816 -0.0096 -0.2339  0.1001
 2256WAT     H1 7170   7.261   0.556   4.729 -1.6403  0.1942  0.7263
 2256WAT     H2 7171   7.335   0.598   4.855  2.4556 -1.0746 -1.1045
 2257WAT      O 7172   3.636   0.681   1.139  0.0504  0.3287 -0.3041
 2257WAT     H1 7173   3.576   0.686   1.214  1.0735 -1.3756  0.6764
 2257WAT     H2 7174   3.707   0.624   1.168  0.9505  0.3652 -2.2643
 2258WAT      O 7175   0.540   6.759   4.158  0.2892 -0.2745 -0.0779
 2258WAT     H1 7176   0.615   6.719   4.201  1.4452  1.0229 -0.7890
 2258WAT     H2 7177   0.536   6.847   4.195 -1.8562 -0.7797  1.0600
 2259WAT      O 7178   7.009   0.076   1.548  0.0258  0.6539 -0.2216
 2259WAT     H1 7179   7.045   0.039   1.628 -0.4306  0.6192 -0.0284
 2259WAT     H2 7180   6.954   0.148   1.577 -0.4169  0.4227 -0.4778
 2260WAT      O 7181   6.766   1.208   4.658 -0.1079 -0.4152 -0.3430
 2260WAT     H1 7182   6.819   1.270   4.708  0.4111 -1.4425  0.4284
 2260WAT     H2 7183   6.685   1.199   4.709  1.0383 -2.6313  1.2291
 2261WAT      O 7184   2.920   3.875   4.766 -0.2762 -0.5435 -0.2848
 2261WAT     H1 7185   3.000   3.857   4.815  0.5736 -0.9301 -1.7658
 2261WAT     H2 7186   2.849   3.845   4.823  0.5403  0.5732  1.4209
 2262WAT      O 7187   2.424   4.853   2.137 -0.3555 -0.1372 -0.9024
 2262WAT     H1 7188   2.355   4.831   2.199  0.7086 -1.1452 -0.0263
 2262WAT     H2 7189   2.445   4.770   2.095 -0.7519  0.4600 -2.3115
 2263WAT      O 7190   3.336   5.648   1.408 -0.0334  0.2556  0.1687
 2263WAT     H1 7191   3.278   5.610   1.343 -2.3278  1.5869  1.2935
 2263WAT     H2 7192   3.400   5.698   1.357 -0.0255 -1.0084 -1.1110
 2264WAT      O 7193   6.061   4.699   3.329 -0.2448  0.3740  0.4233
 2264WAT     H1 7194   6.027   4.695   3.239  0.0643  0.5469  0.2974
 2264WAT     H2 7195   6.062   4.792   3.350 -0.0370  0.3547  0.4982
 2265WAT      O 7196   1.657   5.422   2.765  0.4952  0.5638  0.4082
 2265WAT     H1 7197   1.681   5.347   2.819  0.1449 -0.9772 -1.4589
 2265WAT     H2 7198   1.737   5.474   2.760  0.7525  0.3331  1.7237
 2266WAT      O 7199   4.907   1.540   3.241  0.7526  0.5344  0.4823
 2266WAT     H1 7200   4.932   1.463   3.293 -2.0236 -0.3640  0.6263
 2266WAT     H2 7201   4.912   1.510   3.150 -0.7665 -0.0368  0.5528
 2267WAT      O 7202   6.914   1.106   0.749  0.2155 -0.0122 -0.7241
 2267WAT     H1 7203   6.984   1.048   0.719 -0.7744 -0.7503 -1.6733
 2267WAT     H2 7204   6.908   1.090   0.843  0.2611 -1.1349 -0.9005
 2268WAT      O 7205   5.825   5.817   0.942  0.0753  0.3844 -0.0034
 2268WAT     H1 7206   5.822   5.805   0.847  1.1069  0.6484 -0.0902
 2268WAT     H2 7207   5.919   5.825   0.961 -0.0863 -0.1842  1.1036
 2269WAT      O 7208   7.067   5.761   1.216  0.1445  0.2790 -0.1254
 2269WAT     H1 7209   7.024   5.840   1.183  1.3015  0.3636 -1.5055
 2269WAT     H2 7210   7.118   5.729   1.142  0.7045 -1.0598  0.8078
 2270WAT      O 7211   5.532   0.185   6.215  0.1421  0.1862 -0.2070
 2270WAT     H1 7212   5.549   0.134   6.294  0.4295 -2.0017 -1.6146
 2270WAT     H2 7213   5.444   0.221   6.228  0.6892  0.9948  1.6402
 2271WAT      O 7214   4.997   4.275   0.132  0.1188 -0.5423 -0.1617
 2271WAT     H1 7215   4.962   4.257   0.219  0.8042 -0.1150  0.2097
 2271WAT     H2 7216   5.050   4.198   0.111 -0.7340 -1.0343 -0.5790
 2272WAT      O 7217   6.973   1.710   0.457 -0.2518 -0.1350  0.4104
 2272WAT     H1 7218   6.939   1.636   0.507 -0.2908 -0.3949  0.0001
 2272WAT     H2 7219   7.056   1.731   0.499 -1.4504  1.3158  2.2217
 2273WAT      O 7220   3.337   5.159   2.530 -0.2451 -0.3592 -0.4534
 2273WAT     H1 7221   3.368   5.179   2.618 -0.7788  0.7456 -0.5020
 2273WAT     H2 7222   3.273   5.089   2.543  0.6095 -1.0867 -0.1145
 2274WAT      O 7223   1.923   1.031   3.129  0.2916  0.8465 -0.4335
 2274WAT     H1 7224   1.911   0.962   3.193  0.0991 -0.5725 -1.9344
 2274WAT     H2 7225   1.850   1.091   3.145 -0.1474  0.1589  0.2052
 2275WAT      O 7226   6.853   2.374   1.767 -0.5430  0.0978  0.2729
 2275WAT     H1 7227   6.819   2.462   1.780 -0.3200  0.1486  0.5166
 2275WAT     H2 7228   6.944   2.387   1.740 -0.8599 -0.0182 -0.9198
 2276WAT      O 7229   1.588   3.958   4.908  0.2149  0.5960 -0.5208
 2276WAT     H1 7230   1.644   3.948   4.831 -0.7347 -0.6608 -1.0786
 2276WAT     H2 7231   1.646   3.994   4.975  1.3811  0.4846 -1.4297
 2277WAT      O 7232   5.968   0.914   0.088 -0.2773  0.1248  0.0503
 2277WAT     H1 7233   5.993   0.829   0.053  1.2052  0.4779  0.1756
 2277WAT     H2 7234   5.995   0.911   0.180 -2.9490 -0.3267  0.9076
 2278WAT      O 7235   3.953   4.265   0.706 -0.4754  0.2148 -0.2472
 2278WAT     H1 7236   3.935   4.356   0.728 -1.4666  0.3753 -1.6232
 2278WAT     H2 7237   3.868   4.227   0.685 -0.3577 -1.5778  2.0383
 2279WAT      O 7238   4.014   2.466   2.231 -0.2499  0.0007 -0.2416
 2279WAT     H1 7239   4.049   2.467   2.320  0.3593 -0.4535 -0.4695
 2279WAT     H2 7240   3.980   2.554   2.218  2.6328  1.1358 -0.7128
 2280WAT      O 7241   2.709   5.649   5.303  0.5363  0.7480 -0.0921
 2280WAT     H1 7242   2.754   5.595   5.368 -0.7767 -0.0640  0.1884
 2280WAT     H2 7243   2.619   5.654   5.335 -0.0509  0.6416 -1.6580
 2281WAT      O 7244   6.235   2.273   2.962 -0.1267  0.1576  0.2242
 2281WAT     H1 7245   6.318   2.225   2.958 -0.0964  0.1880  0.4629
 2281WAT     H2 7246   6.188   2.234   3.036  0.3939  1.2642  1.1947
 2282WAT      O 7247   0.751   3.356   5.026  0.4784  0.1220 -0.1834
 2282WAT     H1 7248   0.709   3.438   5.051 -0.8999 -0.1931 -1.3144
 2282WAT     H2 7249   0.822   3.345   5.089 -0.4859  1.2193  1.1567
 2283WAT      O 7250   7.171   0.518   3.196  0.1635  0.1842  0.0203
 2283WAT     H1 7251   7.237   0.468   3.147  0.7095  1.4833 -0.6301
 2283WAT     H2 7252   7.161   0.471   3.278  1.2788 -0.5312 -0.2327
 2284WAT      O 7253   4.410   2.102   0.139 -0.6595 -0.4904  0.4563
 2284WAT     H1 7254   4.386   2.017   0.176  0.2958 -1.2136 -0.4963
 2284WAT     H2 7255   4.501   2.090   0.109 -0.9937  0.4046 -1.0267
 2285WAT      O 7256   3.223   2.098   1.558 -0.6290 -0.6991 -0.1888
 2285WAT     H1 7257   3.170   2.032   1.513 -0.4123 -1.6214  0.8861
 2285WAT     H2 7258   3.180   2.181   1.537  0.2165 -0.9156 -3.1981
 2286WAT      O 7259   1.516   1.126   0.821  0.7070  0.4030 -0.2031
 2286WAT     H1 7260   1.599   1.135   0.868  1.0885 -0.4613 -0.7011
 2286WAT     H2 7261   1.457   1.187   0.866  0.9709 -0.5870  1.6082
 2287WAT      O 7262   5.361   0.996   2.021 -0.0480 -0.9522  0.4129
 2287WAT     H1 7263   5.455   0.979   2.017  0.1323  0.3093 -1.8321
 2287WAT     H2 7264   5.345   1.018   2.113  2.3426  1.2710  0.4003
 2288WAT      O 7265   0.630   1.163   3.064 -0.6225  0.6628 -0.3441
 2288WAT     H1 7266   0.648   1.073   3.036  2.3250  0.0528  2.7557
 2288WAT     H2 7267   0.587   1.153   3.149 -0.9016  2.1769 -0.2862
 2289WAT      O 7268   2.257   0.911   3.179  0.4501 -0.2568  0.2348
 2289WAT     H1 7269   2.298   0.982   3.228  0.2675 -0.0214  0.0499
 2289WAT     H2 7270   2.317   0.894   3.107  1.1069 -1.1389  0.9801
 2290WAT      O 7271   1.274   2.780   1.416 -0.6315  0.2113  0.0051
 2290WAT     H1 7272   1.286   2.799   1.509 -2.4101  1.0396  0.1173
 2290WAT     H2 7273   1.326   2.846   1.371  0.5044 -0.3941  0.3875
 2291WAT      O 7274   2.598   4.163   5.721 -0.1662  0.3047 -0.6263
 2291WAT     H1 7275   2.553   4.091   5.766  0.7703 -0.0736 -0.2614
 2291WAT     H2 7276   2.565   4.242   5.763 -0.4122  0.0261 -0.2932
 2292WAT      O 7277   2.261   4.817   1.541  0.5876  0.5732 -0.1985
 2292WAT     H1 7278   2.261   4.818   1.636  1.7507  0.2046 -0.1760
 2292WAT     H2 7279   2.204   4.889   1.515 -2.0515 -1.0308  0.7612
 2293WAT      O 7280   1.521   3.518   3.211 -0.9668  0.2401 -0.0346
 2293WAT     H1 7281   1.595   3.471   3.249 -0.7954 -0.7687 -1.5489
 2293WAT     H2 7282   1.547   3.610   3.215  0.7655 -0.1505 -1.3137
 2294WAT      O 7283   4.849   3.372   5.625 -0.8091  0.2022 -0.4429
 2294WAT     H1 7284   4.823   3.287   5.660  1.1325  0.0879  0.9106
 2294WAT     H2 7285   4.783   3.433   5.657  0.3116 -0.0681  2.7678
 2295WAT      O 7286   6.681   2.507   4.643 -0.2367 -0.0704 -0.3547
 2295WAT     H1 7287   6.619   2.441   4.612 -0.4559  0.3483 -0.8244
 2295WAT     H2 7288   6.640   2.544   4.721  0.3325 -1.1531  0.4932
 2296WAT      O 7289   3.838   5.119   5.676  0.0903 -0.1286 -0.0068
 2296WAT     H1 7290   3.897   5.144   5.605 -1.0186  0.9666 -0.5721
 2296WAT     H2 7291   3.793   5.200   5.701 -0.3531 -0.7047  1.1959
 2297WAT      O 7292   5.910   4.571   0.980 -0.0624 -0.0491  0.8406
 2297WAT     H1 7293   5.944   4.483   0.963 -0.0902  0.0641  0.1606
 2297WAT     H2 7294   5.895   4.574   1.074 -0.6425 -0.9894  0.7888
 2298WAT      O 7295   5.097   2.501   2.886 -0.2068 -0.0094  0.1410
 2298WAT     H1 7296   5.056   2.582   2.913  0.3757  0.3849 -0.1288
 2298WAT     H2 7297   5.160   2.527   2.819 -1.7772 -0.9733 -1.8079
 2299WAT      O 7298   2.315   0.081   1.229 -0.1123  0.4136  0.0973
 2299WAT     H1 7299   2.341   0.022   1.300 -1.3133  1.3787  1.4158
 2299WAT     H2 7300   2.361   0.048   1.152  0.2625 -1.4353  1.0492
 2300WAT      O 7301   6.709   7.051   5.913 -0.0592 -0.3849  0.2935
 2300WAT     H1 7302   6.629   7.035   5.863  0.4896  1.6739 -1.3554
 2300WAT     H2 7303   6.780   7.034   5.852  0.8094 -1.6006  1.5647
 2301WAT      O 7304   3.314   0.188   0.966  0.3430  0.5518  0.1057
 2301WAT     H1 7305   3.232   0.146   0.942  0.4919  0.5867 -0.4607
 2301WAT     H2 7306   3.379   0.118   0.964  0.3767  0.5772  0.2932
 2302WAT      O 7307   1.317   4.130   1.656 -0.3415  0.7834  0.0944
 2302WAT     H1 7308   1.346   4.090   1.738  1.1222  0.6480 -0.4678
 2302WAT     H2 7309   1.281   4.056   1.606 -1.3407  0.8852  0.6390
 2303WAT      O 7310   6.642   3.475   4.966 -0.1878 -0.0608  0.0019
 2303WAT     H1 7311   6.668   3.566   4.951 -1.6764  0.5073  0.6919
 2303WAT     H2 7312   6.640   3.466   5.061 -3.9517  0.4504  0.1221
 2304WAT      O 7313   7.039   4.256   2.407 -0.0783  0.1438 -0.6716
 2304WAT     H1 7314   7.048   4.234   2.500 -1.2789 -0.6633 -0.7227
 2304WAT     H2 7315   6.976   4.192   2.373 -2.6264  2.7334 -1.1887
 2305WAT      O 7316   2.553   6.398   1.952  0.3923 -0.2893  0.4445
 2305WAT     H1 7317   2.459   6.388   1.938  0.4743 -0.1941 -0.1644
 2305WAT     H2 7318   2.562   6.405   2.048 -0.2145 -0.2969  0.5051
 2306WAT      O 7319   1.207   1.410   3.224 -0.1513  0.2045 -0.1947
 2306WAT     H1 7320   1.229   1.496   3.259 -0.3864  0.4199 -0.5778
 2306WAT     H2 7321   1.247   1.407   3.137 -0.0261 -0.1284 -0.1306
 2307WAT      O 7322   4.589   4.353   2.397  0.2315 -0.4165 -0.5116
 2307WAT     H1 7323   4.659   4.289   2.382  0.6895  0.1809 -1.0117
 2307WAT     H2 7324   4.592   4.370   2.491  1.2491  0.1356 -0.6270
 2308WAT      O 7325   0.799   3.520   5.637  0.5367  0.1751 -0.6169
 2308WAT     H1 7326   0.735   3.507   5.706 -0.6048  1.2412 -1.4284
 2308WAT     H2 7327   0.775   3.457   5.569  1.0774 -0.2292 -0.4354
 2309WAT      O 7328   0.639   3.218   0.449  0.3187 -0.6596  0.6795
 2309WAT     H1 7329   0.660   3.263   0.367 -2.7732 -0.7056 -0.2435
 2309WAT     H2 7330   0.684   3.268   0.516  0.7929  0.9746 -0.7850
 2310WAT      O 7331   7.253   5.775   0.021  0.5183 -0.3335 -0.7024
 2310WAT     H1 7332   7.243   5.870   0.031  0.3775 -0.4338  0.2115
 2310WAT     H2 7333   7.220   5.739   0.103  2.5856 -1.0505 -0.1258
 2311WAT      O 7334   5.686   6.718   3.700 -0.1989  0.3516 -0.1855
 2311WAT     H1 7335   5.607   6.771   3.709 -0.2383  0.0571  1.6166
 2311WAT     H2 7336   5.755   6.771   3.741  0.3449  0.1533 -0.8127
 2312WAT      O 7337   5.347   2.307   5.266  0.3405  0.2168 -0.2806
 2312WAT     H1 7338   5.263   2.320   5.310 -0.1839  0.4174 -1.3350
 2312WAT     H2 7339   5.400   2.260   5.331 -0.4181  0.4877  0.5628
 2313WAT      O 7340   6.226   3.142   5.659  0.0556 -0.3148  0.0833
 2313WAT     H1 7341   6.205   3.080   5.589 -0.0410  0.0410 -0.2049
 2313WAT     H2 7342   6.300   3.102   5.705 -0.3092 -0.8747  0.1972
 2314WAT      O 7343   6.197   2.194   4.594 -0.4849 -0.4355  0.4915
 2314WAT     H1 7344   6.153   2.279   4.591  1.0403  0.3977  0.7764
 2314WAT     H2 7345   6.190   2.167   4.686 -0.3984 -0.3004  0.5384
 2315WAT      O 7346   6.252   0.896   2.370  0.2407  0.0471 -0.0210
 2315WAT     H1 7347   6.289   0.903   2.458 -1.5963 -2.8261  1.1088
 2315WAT     H2 7348   6.304   0.827   2.328  0.4988  0.7520 -0.8957
 2316WAT      O 7349   1.593   3.275   1.677 -0.4922 -0.8314  0.2406
 2316WAT     H1 7350   1.640   3.235   1.605 -0.4253  0.3552 -0.3997
 2316WAT     H2 7351   1.646   3.256   1.755 -0.4497 -1.9206 -0.0457
 2317WAT      O 7352   2.585   6.104   2.288 -0.2588 -0.0288  0.3531
 2317WAT     H1 7353   2.497   6.072   2.305  0.7417 -2.7612  0.8199
 2317WAT     H2 7354   2.599   6.087   2.195 -0.1451  0.2175  0.3241
 2318WAT      O 7355   1.948   4.469   6.080  0.2482 -0.2492 -0.1090
 2318WAT     H1 7356   1.969   4.402   6.146  0.3416  0.1830  0.3071
 2318WAT     H2 7357   1.964   4.425   5.996 -0.9020 -1.1496  0.1211
 2319WAT      O 7358   3.748   2.030   1.538  0.3236  0.1055  0.0393
 2319WAT     H1 7359   3.760   2.052   1.630 -1.1380  1.5957 -0.0743
 2319WAT     H2 7360   3.835   2.007   1.507  1.2380  1.6890  1.2810
 2320WAT      O 7361   5.019   0.338   1.715 -0.4657 -0.0230  0.2543
 2320WAT     H1 7362   5.034   0.432   1.714 -0.2520 -0.0537 -0.5331
 2320WAT     H2 7363   5.093   0.301   1.763 -0.3921  0.1856  0.2987
 2321WAT      O 7364   5.907   6.968   0.141  0.7709  1.1107  0.2476
 2321WAT     H1 7365   5.863   6.983   0.224  0.8119  1.1687  0.2582
 2321WAT     H2 7366   6.000   6.962   0.162  0.9532  2.7273  0.0005
 2322WAT      O 7367   2.180   6.966   2.493  0.2075 -0.5675 -0.1440
 2322WAT     H1 7368   2.108   7.023   2.465  0.0933 -1.0222 -0.8058
 2322WAT     H2 7369   2.159   6.880   2.455  1.4344 -0.5536 -0.9033
 2323WAT      O 7370   1.493   4.080   2.279 -0.4798 -0.2210  0.0475
 2323WAT     H1 7371   1.508   4.121   2.193 -1.1221  3.1917  1.4119
 2323WAT     H2 7372   1.580   4.073   2.317 -0.3542 -0.2498 -0.2383
 2324WAT      O 7373   0.685   1.928   1.633 -0.1448 -0.0781  0.1300
 2324WAT     H1 7374   0.714   1.843   1.601 -1.7710  0.0589 -1.8883
 2324WAT     H2 7375   0.745   1.948   1.705  1.6882 -1.8773 -0.7999
 2325WAT      O 7376   4.239   3.014   4.002  0.1472 -0.1599  0.5956
 2325WAT     H1 7377   4.301   2.942   4.009 -1.2145 -1.2433  2.1020
 2325WAT     H2 7378   4.181   2.989   3.930 -1.5305 -1.6309  2.3425
 2326WAT      O 7379   7.026   5.401   6.055  0.3116 -0.5019  1.0340
 2326WAT     H1 7380   7.122   5.401   6.051  0.3544 -0.2565  1.8442
 2326WAT     H2 7381   6.998   5.436   5.971  1.0762  4.0088  2.3727
 2327WAT      O 7382   1.778   6.682   1.473  0.8305  0.2374 -0.8855
 2327WAT     H1 7383   1.782   6.633   1.555  0.2710  0.5504 -0.6655
 2327WAT     H2 7384   1.800   6.772   1.497 -1.4967  0.8159 -0.6453
 2328WAT      O 7385   2.381   4.394   0.080  1.0500 -0.1339  0.0291
 2328WAT     H1 7386   2.336   4.408   0.164  1.7452 -0.2986  0.4335
 2328WAT     H2 7387   2.377   4.299   0.066  0.9727 -0.1114 -0.1119
 2329WAT      O 7388   0.361   5.420   4.095  0.4832 -0.9926  0.2151
 2329WAT     H1 7389   0.289   5.362   4.122 -0.7902 -0.4737 -1.8085
 2329WAT     H2 7390   0.413   5.433   4.174 -2.2383 -0.5525  2.0629
 2330WAT      O 7391   3.627   3.689   5.121  0.2825  0.5033 -0.1289
 2330WAT     H1 7392   3.576   3.641   5.055  0.2893  0.7372 -0.3037
 2330WAT     H2 7393   3.565   3.707   5.191  0.7061 -1.4369  0.8313
 2331WAT      O 7394   1.025   1.967   5.506 -0.4630 -0.7588  0.4360
 2331WAT     H1 7395   1.049   1.874   5.515 -0.0941 -0.9171 -1.5930
 2331WAT     H2 7396   1.101   2.014   5.541 -0.8208 -1.1938  1.8609
 2332WAT      O 7397   2.879   5.832   2.065  0.0000 -0.4652 -0.0557
 2332WAT     H1 7398   2.798   5.823   2.115 -1.8740 -0.3989 -2.8925
 2332WAT     H2 7399   2.928   5.752   2.085 -1.4137 -1.2127  0.5947
 2333WAT      O 7400   3.535   0.659   0.903  0.0647  0.1045 -0.5788
 2333WAT     H1 7401   3.494   0.573   0.907  0.1140  0.0831 -0.5211
 2333WAT     H2 7402   3.587   0.664   0.983 -0.1878  0.3144 -0.4277
 2334WAT      O 7403   4.638   0.585   0.842 -0.2092 -0.2770  0.3051
 2334WAT     H1 7404   4.572   0.633   0.894 -1.3393  0.2074 -1.4904
 2334WAT     H2 7405   4.688   0.535   0.907 -0.6665  1.3411  1.9942
 2335WAT      O 7406   1.646   0.226   5.576  0.7391 -0.7322  0.2600
 2335WAT     H1 7407   1.594   0.167   5.630  0.1051  0.0100  0.4860
 2335WAT     H2 7408   1.633   0.195   5.487 -1.4683  0.3888  0.1104
 2336WAT      O 7409   1.444   4.470   3.357 -0.4206  0.0305 -0.4559
 2336WAT     H1 7410   1.432   4.559   3.391 -1.5344 -0.3289  0.1690
 2336WAT     H2 7411   1.385   4.466   3.282 -1.5355 -0.6113  0.4086
 2337WAT      O 7412   5.992   0.032   0.628 -0.3435 -0.0905 -0.4454
 2337WAT     H1 7413   6.003   0.090   0.552  2.0788 -0.4847 -0.4716
 2337WAT     H2 7414   6.034   0.080   0.700  0.9892 -1.4231 -0.2930
 2338WAT      O 7415   1.107   0.425   0.620  0.0223  0.1879 -0.3227
 2338WAT     H1 7416   1.109   0.515   0.651 -0.9386 -0.2718  1.1730
 2338WAT     H2 7417   1.178   0.381   0.666  0.9868  0.3208 -1.6241
 2339WAT      O 7418   1.923   1.735   3.435  0.7653 -0.4571 -0.1691
 2339WAT     H1 7419   2.000   1.711   3.384  0.1442 -2.0124 -0.4404
 2339WAT     H2 7420   1.868   1.656   3.433 -0.0906  0.0668  1.3840
 2340WAT      O 7421   4.251   5.684   5.722 -0.4390  0.8963 -0.2501
 2340WAT     H1 7422   4.197   5.675   5.800 -1.1404  1.3772 -0.6663
 2340WAT     H2 7423   4.259   5.594   5.689 -2.5583  0.9823 -1.1955
 2341WAT      O 7424   2.465   0.817   4.534  0.1103 -0.3362  0.4295
 2341WAT     H1 7425   2.388   0.843   4.484  1.0165 -0.6210 -1.2127
 2341WAT     H2 7426   2.474   0.884   4.602 -1.3608 -0.1140  0.4279
 2342WAT      O 7427   1.459   2.392   5.178  0.4230 -0.3509  0.7745
 2342WAT     H1 7428   1.489   2.405   5.268  0.2112 -0.1460  0.8161
 2342WAT     H2 7429   1.366   2.416   5.180  0.4182 -0.3444  0.5014
 2343WAT      O 7430   5.131   7.108   1.646 -0.2134 -0.1206  0.1633
 2343WAT     H1 7431   5.195   7.175   1.671 -2.1957  1.6923  0.7179
 2343WAT     H2 7432   5.173   7.060   1.575  2.7098 -0.6778  2.0797
 2344WAT      O 7433   6.342   5.282   3.536  0.7730 -0.4938  0.5950
 2344WAT     H1 7434   6.359   5.333   3.457 -2.1772 -1.0456 -0.5247
 2344WAT     H2 7435   6.369   5.193   3.513 -2.0930 -1.1362 -0.7670
 2345WAT      O 7436   0.382   6.921   4.664 -0.0555  0.2952  0.3272
 2345WAT     H1 7437   0.366   7.014   4.650  1.9150  0.4663 -1.4519
 2345WAT     H2 7438   0.370   6.882   4.577 -2.4477 -1.4400  1.3442
 2346WAT      O 7439   6.589   7.152   5.036 -0.0094  0.1946  0.0873
 2346WAT     H1 7440   6.618   7.242   5.051  0.1954  0.1788 -0.1993
 2346WAT     H2 7441   6.578   7.146   4.941 -0.4570  0.0475  0.1503
 2347WAT      O 7442   4.325   6.493   0.710  0.1974 -0.1777  0.1446
 2347WAT     H1 7443   4.312   6.407   0.672 -0.8699  0.6346 -1.4730
 2347WAT     H2 7444   4.263   6.549   0.663  0.8596  1.4707  1.1451
 2348WAT      O 7445   6.524   5.627   5.416 -0.0040  0.1085  0.1983
 2348WAT     H1 7446   6.606   5.669   5.388 -2.5358  4.6269 -1.4014
 2348WAT     H2 7447   6.496   5.577   5.339 -0.1703  1.0113 -0.3383
 2349WAT      O 7448   6.979   6.477   4.582 -0.5765  0.3828 -0.3206
 2349WAT     H1 7449   6.939   6.412   4.640  0.4647 -0.8856 -0.9765
 2349WAT     H2 7450   7.073   6.461   4.589 -0.3655  1.0291 -1.4171
 2350WAT      O 7451   6.038   2.777   6.103 -0.1262  0.2397 -0.7977
 2350WAT     H1 7452   6.073   2.844   6.161 -1.4215  1.1824 -1.0646
 2350WAT     H2 7453   6.071   2.695   6.138 -1.2125  0.7253  1.5569
 2351WAT      O 7454   0.321   3.240   3.647  0.3182  0.5155  0.2794
 2351WAT     H1 7455   0.299   3.165   3.703 -0.5929  0.8666  0.4157
 2351WAT     H2 7456   0.407   3.268   3.676  1.4394 -1.4951 -0.8665
 2352WAT      O 7457   4.887   3.482   6.207 -0.2697  0.3593  0.0204
 2352WAT     H1 7458   4.972   3.449   6.180  0.6367  2.2566  0.3762
 2352WAT     H2 7459   4.898   3.509   6.298 -1.6382 -0.5806  0.4928
 2353WAT      O 7460   5.543   3.568   5.366 -0.4011  0.3364  0.0784
 2353WAT     H1 7461   5.614   3.615   5.323 -1.1578  1.7454  0.2862
 2353WAT     H2 7462   5.574   3.554   5.456  1.0293 -2.2848 -0.7140
 2354WAT      O 7463   5.103   3.761   4.945 -0.3717 -0.0565 -0.6543
 2354WAT     H1 7464   5.168   3.744   5.014 -0.7834 -0.9318 -0.4720
 2354WAT     H2 7465   5.153   3.806   4.876 -0.1841  1.8108  0.6345
 2355WAT      O 7466   4.760   7.097   5.163  0.4174 -0.1799 -0.2526
 2355WAT     H1 7467   4.786   7.175   5.210 -0.2775 -0.6457  0.9355
 2355WAT     H2 7468   4.717   7.130   5.084 -0.4770  0.6608  0.5604
 2356WAT      O 7469   0.408   5.964   5.584  0.2255 -0.2429  0.0524
 2356WAT     H1 7470   0.330   5.941   5.633  0.6292  1.7707  1.8234
 2356WAT     H2 7471   0.473   5.984   5.651  1.4429  0.6771 -1.3366
 2357WAT      O 7472   0.738   2.240   0.508 -0.4491  0.3738  0.0075
 2357WAT     H1 7473   0.690   2.321   0.525 -1.4566 -0.2502  0.1969
 2357WAT     H2 7474   0.809   2.240   0.573 -0.1135  1.3442 -0.3368
 2358WAT      O 7475   7.270   1.105   1.002 -0.1807  0.0592  0.8734
 2358WAT     H1 7476   7.364   1.119   1.019  0.0429 -1.1949  0.7547
 2358WAT     H2 7477   7.250   1.021   1.044 -2.0005  1.6765  3.5728
 2359WAT      O 7478   3.121   6.029   3.866  0.2955 -0.3120 -0.3500
 2359WAT     H1 7479   3.119   6.069   3.953 -1.2101 -0.6050 -0.2230
 2359WAT     H2 7480   3.126   6.103   3.806 -0.5329  0.0065 -0.0505
 2360WAT      O 7481   4.252   5.855   3.348 -0.1700 -1.0968  0.0919
 2360WAT     H1 7482   4.167   5.898   3.360 -0.2804 -1.3770  0.3215
 2360WAT     H2 7483   4.307   5.923   3.309 -0.9648 -1.4027 -1.6637
 2361WAT      O 7484   3.116   4.977   2.545 -0.5547 -0.2071  0.6366
 2361WAT     H1 7485   3.119   4.892   2.500 -0.0750 -0.2279  0.7018
 2361WAT     H2 7486   3.028   5.009   2.529 -0.0203  0.3804 -1.4242
 2362WAT      O 7487   6.543   4.991   5.917 -0.7809 -0.8851 -0.0184
 2362WAT     H1 7488   6.546   5.079   5.879 -0.1216 -1.0546 -0.3797
 2362WAT     H2 7489   6.598   4.998   5.996  1.4540 -1.5804 -1.4091
 2363WAT      O 7490   7.393   0.882   4.261 -0.2344 -0.7739 -0.3870
 2363WAT     H1 7491   7.406   0.905   4.353  0.8372 -1.0767 -0.4492
 2363WAT     H2 7492   7.318   0.823   4.262  0.1704 -1.2992  0.3884
 2364WAT      O 7493   2.029   0.762   3.696  0.4519  0.2216 -0.1433
 2364WAT     H1 7494   1.961   0.701   3.727 -0.5184  0.7262 -1.1949
 2364WAT     H2 7495   2.056   0.809   3.775  0.2477 -0.6287  0.4526
 2365WAT      O 7496   6.640   4.243   2.179 -0.1221  0.3390 -0.0825
 2365WAT     H1 7497   6.626   4.298   2.102 -1.9976 -0.4806 -0.3750
 2365WAT     H2 7498   6.733   4.218   2.174 -0.1774  0.3742 -2.0440
 2366WAT      O 7499   1.920   7.035   5.735  0.1306  0.1742 -0.0597
 2366WAT     H1 7500   1.851   7.069   5.677 -1.7577  0.1468  2.0483
 2366WAT     H2 7501   1.934   7.105   5.799  0.8638 -0.4955  0.5317
 2367WAT      O 7502   4.371   5.801   4.976 -0.2928 -0.0440  0.2858
 2367WAT     H1 7503   4.336   5.887   4.998 -0.0962 -0.1455  1.0257
 2367WAT     H2 7504   4.466   5.813   4.976 -0.2098 -0.5503  1.7109
 2368WAT      O 7505   0.185   5.780   1.050  0.3021  0.2336  0.8111
 2368WAT     H1 7506   0.217   5.756   1.137 -0.1629  1.1951  1.2651
 2368WAT     H2 7507   0.118   5.714   1.030  0.7340 -0.2643  0.9659
 2369WAT      O 7508   2.989   0.542   6.240  1.0066 -0.6909  0.4853
 2369WAT     H1 7509   3.084   0.545   6.247  1.1387  0.0191 -1.2707
 2369WAT     H2 7510   2.967   0.612   6.178 -0.8237  0.4225  2.2655
 2370WAT      O 7511   5.651   3.267   6.032 -0.2035 -0.1635  0.0957
 2370WAT     H1 7512   5.644   3.357   5.999  1.8946  0.2622  0.6437
 2370WAT     H2 7513   5.632   3.212   5.956 -0.9281  0.7348 -0.3896
 2371WAT      O 7514   3.822   2.820   2.764  0.2981 -0.4253  0.3596
 2371WAT     H1 7515   3.807   2.849   2.854  1.5099 -0.9565  0.7588
 2371WAT     H2 7516   3.912   2.847   2.744  0.7137 -1.9613  0.0045
 2372WAT      O 7517   5.446   3.690   5.947  0.3961 -0.4048  0.3786
 2372WAT     H1 7518   5.528   3.652   5.918  0.7128  1.2237 -1.0214
 2372WAT     H2 7519   5.458   3.704   6.041  2.9410  2.4219 -0.2005
 2373WAT      O 7520   6.816   5.330   0.409 -0.1709  0.1904 -0.0498
 2373WAT     H1 7521   6.838   5.245   0.369  1.0114  1.2121 -1.6733
 2373WAT     H2 7522   6.826   5.315   0.503 -0.1908 -1.5225 -0.2835
 2374WAT      O 7523   5.829   2.866   5.226 -0.3718  0.4073  0.6596
 2374WAT     H1 7524   5.878   2.844   5.305  0.9653  0.7254 -0.0435
 2374WAT     H2 7525   5.781   2.945   5.248 -0.5787  0.0965  1.3628
 2375WAT      O 7526   6.792   5.267   0.924 -0.0651 -0.0541  0.3851
 2375WAT     H1 7527   6.881   5.293   0.946 -0.0190  1.1433 -1.0372
 2375WAT     H2 7528   6.748   5.256   1.009  0.9902  0.9695  1.0952
 2376WAT      O 7529   2.073   5.872   4.487  0.0938  0.2004 -0.8608
 2376WAT     H1 7530   2.120   5.888   4.406  0.9253  1.1299 -0.2276
 2376WAT     H2 7531   2.141   5.856   4.552 -0.5830 -1.5827 -0.5264
 2377WAT      O 7532   0.897   2.625   4.522 -0.0773 -0.3084 -0.0606
 2377WAT     H1 7533   0.986   2.604   4.493 -0.0891  0.3536 -0.5789
 2377WAT     H2 7534   0.865   2.689   4.459 -1.4669 -1.6141 -0.7645
 2378WAT      O 7535   2.174   6.263   5.526  0.2294  0.2220 -0.0484
 2378WAT     H1 7536   2.082   6.238   5.517 -0.2621  1.3343  1.4333
 2378WAT     H2 7537   2.186   6.277   5.620  2.2983 -1.2284 -0.0113
 2379WAT      O 7538   1.895   4.788   3.157 -0.2106 -0.1204 -0.1408
 2379WAT     H1 7539   1.984   4.804   3.188  0.6731 -0.1030 -2.5126
 2379WAT     H2 7540   1.865   4.873   3.125 -0.7500 -0.3242 -0.1838
 2380WAT      O 7541   7.167   0.225   3.936  0.1832  0.5350 -0.4080
 2380WAT     H1 7542   7.186   0.143   3.982 -0.9913  0.8968  0.7967
 2380WAT     H2 7543   7.221   0.290   3.980 -0.9340  0.8803  0.5118
 2381WAT      O 7544   7.011   0.911   5.767  0.3448 -0.3306  0.6384
 2381WAT     H1 7545   6.994   0.817   5.773  1.1310 -1.0470 -4.1418
 2381WAT     H2 7546   7.097   0.917   5.724  0.0228  2.5650  0.2032
 2382WAT      O 7547   5.790   6.577   5.583 -0.5148 -0.4124  0.5490
 2382WAT     H1 7548   5.821   6.570   5.673 -0.4825 -1.1558  0.4858
 2382WAT     H2 7549   5.694   6.573   5.591 -0.5711  0.7699  0.6477
 2383WAT      O 7550   0.650   3.647   2.396  0.1372  0.1097  0.0234
 2383WAT     H1 7551   0.653   3.712   2.326 -2.6111 -0.7746 -1.0565
 2383WAT     H2 7552   0.601   3.689   2.466  0.6656  0.1069  0.3988
 2384WAT      O 7553   6.780   4.364   3.950  0.1187  0.4158 -0.3268
 2384WAT     H1 7554   6.763   4.453   3.921 -1.4825 -0.0605 -0.9477
 2384WAT     H2 7555   6.785   4.313   3.869  0.1645 -0.1910  0.0523
 2385WAT      O 7556   0.763   1.435   5.760  0.4548  0.7793 -0.2403
 2385WAT     H1 7557   0.671   1.455   5.748  0.4164  0.2010 -0.9509
 2385WAT     H2 7558   0.778   1.445   5.854 -0.2750  1.0926 -0.1549
 2386WAT      O 7559   1.630   6.486   0.871  0.2964  0.2956 -0.1366
 2386WAT     H1 7560   1.678   6.418   0.825  0.9338 -0.1375  1.1344
 2386WAT     H2 7561   1.626   6.559   0.809  0.8505 -0.3810 -0.9859
 2387WAT      O 7562   7.562   0.957   3.569  0.3052 -0.2608  0.7152
 2387WAT     H1 7563   7.508   0.883   3.597 -3.0279  1.9672  0.7184
 2387WAT     H2 7564   7.574   1.010   3.647 -0.8610  1.1860 -0.0350
 2388WAT      O 7565   4.192   1.474   1.412 -0.1034 -0.2131  0.7415
 2388WAT     H1 7566   4.247   1.422   1.353  0.4850  0.5223  0.6232
 2388WAT     H2 7567   4.112   1.422   1.423  0.9618 -1.7506  1.6485
 2389WAT      O 7568   5.546   7.033   0.707  0.2964 -0.2978  0.1013
 2389WAT     H1 7569   5.575   6.948   0.742  0.7538 -0.3501 -0.3865
 2389WAT     H2 7570   5.587   7.097   0.764  0.4600 -0.3958  0.0959
 2390WAT      O 7571   4.995   6.352   0.093 -0.0080 -0.2794 -0.2504
 2390WAT     H1 7572   5.016   6.314   0.178 -1.0017 -1.1240 -0.3492
 2390WAT     H2 7573   4.900   6.364   0.096  0.2768  2.6107 -0.0944
 2391WAT      O 7574   7.069   3.104   4.534 -0.1263 -0.1612 -0.3518
 2391WAT     H1 7575   7.035   3.016   4.521 -1.1686  0.3082 -0.9754
 2391WAT     H2 7576   7.005   3.146   4.591 -1.7463  1.3205 -3.0284
 2392WAT      O 7577   6.021   2.298   5.911 -0.0547 -0.6518  0.0993
 2392WAT     H1 7578   6.116   2.298   5.910 -0.0564 -0.4669 -0.6333
 2392WAT     H2 7579   5.996   2.389   5.892 -0.3793 -0.6040  0.7093
 2393WAT      O 7580   6.088   3.036   5.022 -0.7992  0.2458 -0.0486
 2393WAT     H1 7581   6.091   3.033   5.118  0.2961 -0.0433 -0.0769
 2393WAT     H2 7582   6.070   2.946   4.996 -0.9271  0.2920 -0.1199
 2394WAT      O 7583   4.393   6.888   5.066  0.1923 -0.7936  0.1334
 2394WAT     H1 7584   4.317   6.854   5.020 -0.4043  0.8254 -0.1559
 2394WAT     H2 7585   4.357   6.941   5.137  1.0173  0.3723 -0.2861
 2395WAT      O 7586   4.568   0.100   5.963 -0.5599  0.6063 -0.4154
 2395WAT     H1 7587   4.511   0.147   6.024  0.6344  1.4431  0.0786
 2395WAT     H2 7588   4.649   0.086   6.011 -0.5141 -1.0714 -0.9226
 2396WAT      O 7589   7.455   1.080   5.059  0.5328 -0.2258 -0.4401
 2396WAT     H1 7590   7.489   1.138   5.127 -0.8064  1.1132 -0.8722
 2396WAT     H2 7591   7.390   1.026   5.104 -0.6973  0.9838 -0.7124
 2397WAT      O 7592   2.263   2.326   2.743 -0.4871  0.5953  0.3889
 2397WAT     H1 7593   2.288   2.418   2.743 -1.2484  0.8340 -1.0954
 2397WAT     H2 7594   2.300   2.291   2.824  0.7279  1.9479  0.4648
 2398WAT      O 7595   2.353   0.643   5.615  0.1959 -0.2998  0.0029
 2398WAT     H1 7596   2.429   0.677   5.662  0.0660 -0.1981  0.1401
 2398WAT     H2 7597   2.280   0.696   5.646  0.4337  1.2375 -1.8962
 2399WAT      O 7598   4.146   7.093   5.480  0.6908  0.2207 -0.2926
 2399WAT     H1 7599   4.195   7.072   5.560  1.2787  2.8155  0.1162
 2399WAT     H2 7600   4.054   7.080   5.505  0.9508 -0.8453  0.1813
 2400WAT      O 7601   4.316   5.713   3.722 -0.2641 -0.1212 -0.1272
 2400WAT     H1 7602   4.322   5.617   3.726 -0.5184 -0.0954  1.1345
 2400WAT     H2 7603   4.394   5.739   3.673  0.0413 -0.9464 -0.1050
 2401WAT      O 7604   5.348   3.077   2.227 -0.0180  0.0409  0.1759
 2401WAT     H1 7605   5.385   3.106   2.310  0.5241  1.4449 -0.5323
 2401WAT     H2 7606   5.325   2.985   2.242 -1.5258  0.6859  2.4129
 2402WAT      O 7607   1.573   1.544   2.464  0.4675  0.1165 -0.1471
 2402WAT     H1 7608   1.498   1.601   2.478  2.1109  1.8648  2.6066
 2402WAT     H2 7609   1.642   1.603   2.432  1.0359 -1.2467 -1.6252
 2403WAT      O 7610   7.230   3.164   1.194 -0.4005 -0.3217 -0.3502
 2403WAT     H1 7611   7.174   3.150   1.117 -0.7999 -0.4002 -0.0492
 2403WAT     H2 7612   7.195   3.243   1.235 -0.5774 -0.6219  0.0883
 2404WAT      O 7613   3.654   3.355   0.636 -0.0243 -0.1793  0.5596
 2404WAT     H1 7614   3.643   3.286   0.701  0.3572 -1.2862 -0.4990
 2404WAT     H2 7615   3.737   3.398   0.660  0.2099 -0.7035  0.7040
 2405WAT      O 7616   3.190   1.290   1.762 -0.2006  0.1571  0.1735
 2405WAT     H1 7617   3.158   1.347   1.691  1.5767 -0.1560 -0.9560
 2405WAT     H2 7618   3.117   1.232   1.781 -1.8056  2.2552  0.8179
 2406WAT      O 7619   5.993   4.540   3.725  0.1534  0.2388  0.2949
 2406WAT     H1 7620   6.073   4.514   3.771  0.6714  0.9152 -0.2204
 2406WAT     H2 7621   5.990   4.635   3.733 -0.1570  0.2963 -0.4194
 2407WAT      O 7622   4.819   0.531   1.895  0.2028 -0.1190  0.0249
 2407WAT     H1 7623   4.743   0.517   1.951 -0.9816  2.3010 -0.8524
 2407WAT     H2 7624   4.835   0.446   1.854 -2.2756 -0.5976 -0.0482
 2408WAT      O 7625   4.436   4.620   2.584 -0.2289 -0.3289  0.1634
 2408WAT     H1 7626   4.420   4.534   2.624  0.5783 -0.1594  0.8893
 2408WAT     H2 7627   4.360   4.673   2.610  0.1187 -0.3230  1.2190
 2409WAT      O 7628   2.442   6.943   4.578 -0.1178  0.3409  0.2105
 2409WAT     H1 7629   2.377   7.010   4.556 -0.9626 -1.2317 -2.5218
 2409WAT     H2 7630   2.399   6.860   4.558  1.9860 -0.8826  0.4649
 2410WAT      O 7631   4.839   5.318   5.029 -0.0517  0.1870 -0.2148
 2410WAT     H1 7632   4.795   5.286   5.107 -1.1268 -0.4988 -1.0826
 2410WAT     H2 7633   4.839   5.414   5.039 -2.5555  0.2801 -0.5857
 2411WAT      O 7634   2.227   5.104   4.191 -0.0861 -0.3091  0.5294
 2411WAT     H1 7635   2.320   5.108   4.170 -0.3539  0.6848 -0.5459
 2411WAT     H2 7636   2.185   5.079   4.110 -0.7619 -0.8402  1.0346
 2412WAT      O 7637   3.456   0.860   1.366  0.7575 -0.5663  0.4626
 2412WAT     H1 7638   3.475   0.790   1.429 -0.2888 -1.1494  0.1576
 2412WAT     H2 7639   3.361   0.867   1.367  0.8710  2.3274  2.0505
 2413WAT      O 7640   4.571   3.134   2.469  0.1243 -0.4429 -0.2625
 2413WAT     H1 7641   4.605   3.220   2.493 -0.4557 -0.7114  1.6314
 2413WAT     H2 7642   4.648   3.085   2.441  0.5500  0.4837 -0.7577
 2414WAT      O 7643   0.806   6.323   5.511  0.3269 -0.2600  0.1683
 2414WAT     H1 7644   0.861   6.401   5.519  1.2941 -1.0227  1.1302
 2414WAT     H2 7645   0.856   6.264   5.454  0.3044 -0.7818  0.6852
 2415WAT      O 7646   2.783   3.625   5.284 -0.4476 -0.2847  0.2031
 2415WAT     H1 7647   2.704   3.627   5.339 -0.6909 -1.9727 -0.0507
 2415WAT     H2 7648   2.855   3.638   5.346 -0.8473  0.1876  0.5802
 2416WAT      O 7649   6.534   4.645   2.476 -0.4815  0.2248  0.4481
 2416WAT     H1 7650   6.508   4.555   2.497 -0.2809 -0.3592 -1.5640
 2416WAT     H2 7651   6.549   4.686   2.561 -1.5780 -1.3366  1.4528
 2417WAT      O 7652   4.428   1.083   2.832  0.0580  0.4441 -0.1402
 2417WAT     H1 7653   4.495   1.016   2.846 -0.7980 -0.6156 -0.9071
 2417WAT     H2 7654   4.472   1.166   2.851  1.7209 -0.1716 -1.0878
 2418WAT      O 7655   3.075   1.353   2.947  0.3138  0.2358 -0.1468
 2418WAT     H1 7656   3.155   1.404   2.958 -0.1002  1.0916 -1.0428
 2418WAT     H2 7657   3.101   1.278   2.894  0.5717  0.4126 -0.2712
 2419WAT      O 7658   2.701   1.301   1.342 -0.1323  0.5436 -0.0277
 2419WAT     H1 7659   2.772   1.265   1.395  0.4530  0.5608 -0.7822
 2419WAT     H2 7660   2.636   1.230   1.338 -0.5433  0.8157  1.3338
 2420WAT      O 7661   4.569   6.636   6.236  0.4308  0.4019  0.3835
 2420WAT     H1 7662   4.635   6.695   6.272  0.0773  0.5966  0.7295
 2420WAT     H2 7663   4.597   6.549   6.262  2.4816  0.0682 -2.4726
 2421WAT      O 7664   4.685   2.249   1.866 -0.1288 -0.0705 -0.0809
 2421WAT     H1 7665   4.600   2.217   1.898  0.8345 -0.3154  2.4106
 2421WAT     H2 7666   4.692   2.337   1.902  0.8913 -0.2417  0.1571
 2422WAT      O 7667   4.250   3.364   3.611 -0.3587  0.1607 -0.3392
 2422WAT     H1 7668   4.326   3.309   3.631 -0.7863 -0.2079  0.3233
 2422WAT     H2 7669   4.284   3.433   3.555  0.8470  1.0448  1.3909
 2423WAT      O 7670   2.916   2.599   0.168  0.3705  0.0079 -0.2163
 2423WAT     H1 7671   2.943   2.639   0.250 -0.0509 -2.0922  1.0317
 2423WAT     H2 7672   2.986   2.537   0.147  0.1512  0.0344 -1.0696
 2424WAT      O 7673   7.638   1.052   3.859 -0.0085  0.2900 -0.2313
 2424WAT     H1 7674   7.707   1.114   3.881  1.7230 -0.8970 -1.9491
 2424WAT     H2 7675   7.649   0.980   3.921  0.1241  0.2381 -0.3139
 2425WAT      O 7676   5.397   0.745   5.801  0.4303 -0.6120 -0.1432
 2425WAT     H1 7677   5.394   0.731   5.896  0.8572  2.1601  0.3876
 2425WAT     H2 7678   5.486   0.774   5.784 -0.4540  2.1115 -0.7404
 2426WAT      O 7679   3.554   3.510   0.255  0.0833 -0.0334  0.0032
 2426WAT     H1 7680   3.531   3.434   0.308 -1.7291  0.7061  0.3211
 2426WAT     H2 7681   3.649   3.502   0.243  0.0160 -2.0774  0.4044
 2427WAT      O 7682   5.644   4.473   0.586  0.3676 -0.2671  0.0770
 2427WAT     H1 7683   5.577   4.406   0.575 -1.5561  1.4464  0.6935
 2427WAT     H2 7684   5.654   4.483   0.681 -0.3833  1.2096  0.0328
 2428WAT      O 7685   3.417   0.923   5.976 -0.7090 -0.1126  0.3180
 2428WAT     H1 7686   3.405   0.995   6.037 -0.7368  0.1700 -0.0191
 2428WAT     H2 7687   3.491   0.873   6.011 -0.2739  0.4410  0.2095
 2429WAT      O 7688   7.220   2.406   2.410  0.3539 -0.2340  0.0836
 2429WAT     H1 7689   7.252   2.493   2.437 -1.3329  0.6316 -0.5467
 2429WAT     H2 7690   7.299   2.354   2.399  1.4186  1.2348  0.4483
 2430WAT      O 7691   3.557   3.152   5.649  0.3102 -0.0044 -0.1102
 2430WAT     H1 7692   3.618   3.224   5.637 -0.8924  1.0092 -0.4321
 2430WAT     H2 7693   3.603   3.090   5.704  1.9511  0.2936 -1.0810
 2431WAT      O 7694   7.010   5.362   0.124 -0.3231 -0.3994  0.7380
 2431WAT     H1 7695   7.011   5.394   0.214  0.6548  0.5719  0.4021
 2431WAT     H2 7696   7.102   5.356   0.100 -0.5140  2.8232 -1.3481
 2432WAT      O 7697   0.655   2.090   3.993 -0.0437 -0.3777  0.5339
 2432WAT     H1 7698   0.596   2.055   4.059  0.5724 -0.0198  1.3014
 2432WAT     H2 7699   0.729   2.029   3.991 -1.5241 -2.3143 -2.2999
 2433WAT      O 7700   1.599   2.366   1.613  0.2569 -0.1646 -0.1385
 2433WAT     H1 7701   1.561   2.291   1.567 -1.2482 -0.8996  2.0872
 2433WAT     H2 7702   1.523   2.421   1.635  1.0530  0.7516  0.3886
 2434WAT      O 7703   4.976   5.011   0.607 -0.6596  0.4134 -0.3456
 2434WAT     H1 7704   5.029   5.017   0.686  0.2394 -0.1060 -0.8990
 2434WAT     H2 7705   4.947   4.920   0.604  1.1943 -0.1995 -1.7677
 2435WAT      O 7706   0.636   6.445   2.366 -0.1192 -0.6767 -0.3494
 2435WAT     H1 7707   0.549   6.408   2.384  0.3075 -0.7704  1.6992
 2435WAT     H2 7708   0.695   6.396   2.424  0.5669  2.7887  2.1706
 2436WAT      O 7709   7.103   0.475   0.378 -0.1713 -0.5022 -0.0762
 2436WAT     H1 7710   7.184   0.427   0.394  1.1658  0.8259 -2.3241
 2436WAT     H2 7711   7.035   0.421   0.417  1.8647 -0.9242  3.3579
 2437WAT      O 7712   3.741   0.181   4.908  0.0702  0.4482 -0.1330
 2437WAT     H1 7713   3.745   0.237   4.831 -1.5886  1.1443  0.2381
 2437WAT     H2 7714   3.691   0.232   4.972  0.5557 -0.5168  1.0519
 2438WAT      O 7715   2.070   0.661   1.375 -0.3416 -0.1242 -0.4546
 2438WAT     H1 7716   2.022   0.676   1.293 -0.5677  0.5920 -0.2019
 2438WAT     H2 7717   2.104   0.747   1.398  0.5003 -0.4958 -0.2702
 2439WAT      O 7718   4.307   5.100   3.068 -0.4449  0.0302 -0.1849
 2439WAT     H1 7719   4.241   5.041   3.105  0.2971 -0.7298 -0.0319
 2439WAT     H2 7720   4.376   5.041   3.038 -0.4972  0.7120 -1.7123
 2440WAT      O 7721   4.450   0.282   4.274 -0.0107 -0.3853  0.4045
 2440WAT     H1 7722   4.417   0.195   4.248  0.8681 -0.5325 -0.2455
 2440WAT     H2 7723   4.395   0.306   4.349 -2.4721 -0.0491 -1.3817
 2441WAT      O 7724   6.881   2.464   3.708 -0.0754 -0.4183 -0.4404
 2441WAT     H1 7725   6.914   2.374   3.702  0.3503 -0.3320  0.4383
 2441WAT     H2 7726   6.922   2.499   3.787 -1.7184 -0.0843  0.3111
 2442WAT      O 7727   3.978   3.851   4.699 -0.0163  0.4429  0.4233
 2442WAT     H1 7728   3.980   3.819   4.790 -0.8310  0.7969  0.5763
 2442WAT     H2 7729   3.899   3.905   4.695 -0.0658  0.3064 -0.5433
 2443WAT      O 7730   3.445   4.596   3.464  0.3393 -0.9507  0.0013
 2443WAT     H1 7731   3.514   4.537   3.493 -0.2909 -1.6831  0.0523
 2443WAT     H2 7732   3.373   4.582   3.526  1.0822  1.8489  1.6881
 2444WAT      O 7733   3.082   4.673   3.149  0.3021  0.2863  0.4055
 2444WAT     H1 7734   3.085   4.578   3.158 -0.3443  0.0981 -1.0634
 2444WAT     H2 7735   3.097   4.706   3.238 -0.9070 -1.2146  1.2198
 2445WAT      O 7736   0.089   5.434   2.612 -0.2661  0.2285  0.1257
 2445WAT     H1 7737   0.111   5.343   2.590 -0.5651  0.4864 -1.3662
 2445WAT     H2 7738   0.167   5.468   2.656 -0.4675 -0.9842  1.4747
 2446WAT      O 7739   3.007   3.843   1.352  0.2974 -0.0901 -0.0238
 2446WAT     H1 7740   3.020   3.920   1.409 -1.0982  1.3462 -1.5417
 2446WAT     H2 7741   2.972   3.776   1.410 -3.4741  2.0836  0.5173
 2447WAT      O 7742   1.471   5.039   4.456 -0.3663  0.6279 -0.4376
 2447WAT     H1 7743   1.539   5.082   4.508  1.9612 -1.9465 -1.1443
 2447WAT     H2 7744   1.405   5.012   4.521 -0.2412  2.2168  0.4012
 2448WAT      O 7745   7.292   5.454   5.979  0.4746 -0.2157 -0.5879
 2448WAT     H1 7746   7.316   5.468   5.887  2.6320 -0.8698 -0.1917
 2448WAT     H2 7747   7.369   5.485   6.028  0.4449 -2.2357  0.8473
 2449WAT      O 7748   0.091   3.514   1.140 -1.0968  0.0845  0.5119
 2449WAT     H1 7749   0.080   3.424   1.110 -1.4179  0.2937  0.0007
 2449WAT     H2 7750   0.047   3.568   1.075 -2.0443  0.5259  1.4812
 2450WAT      O 7751   4.682   5.606   5.350 -0.0639  0.2398  0.3894
 2450WAT     H1 7752   4.593   5.635   5.332 -0.6202 -0.7615  1.4126
 2450WAT     H2 7753   4.686   5.594   5.445  1.2743  0.6168  0.4106
 2451WAT      O 7754   5.535   6.957   2.351  0.4522  0.1977  0.7774
 2451WAT     H1 7755   5.534   6.880   2.407  1.2010  0.7032  1.5154
 2451WAT     H2 7756   5.475   7.018   2.394 -1.1513 -0.4169 -0.4968
 2452WAT      O 7757   2.943   6.621   2.612  0.0335 -0.7536 -0.1121
 2452WAT     H1 7758   2.997   6.547   2.639  1.3944 -0.3298 -1.5385
 2452WAT     H2 7759   2.974   6.642   2.524 -2.6034 -0.6329 -1.1245
 2453WAT      O 7760   3.216   0.965   2.499  0.0568 -0.2370  0.1431
 2453WAT     H1 7761   3.181   0.876   2.494 -1.7989  0.4890 -0.7377
 2453WAT     H2 7762   3.287   0.967   2.435 -0.5320 -0.8262 -0.5462
 2454WAT      O 7763   3.852   6.909   4.074  0.0498  0.2275  0.4015
 2454WAT     H1 7764   3.821   6.993   4.041  0.6701  0.6317  0.8092
 2454WAT     H2 7765   3.922   6.932   4.135 -0.2158 -0.5531  1.0225
 2455WAT      O 7766   5.068   6.525   4.427  0.8645  0.2592  0.2631
 2455WAT     H1 7767   5.098   6.522   4.336 -0.2171 -0.7302 -0.0713
 2455WAT     H2 7768   5.149   6.516   4.479  1.2658 -1.5741 -0.6143
 2456WAT      O 7769   6.792   0.310   5.343 -0.0488 -0.2393 -0.1690
 2456WAT     H1 7770   6.698   0.307   5.364  0.0099  2.7926  1.0321
 2456WAT     H2 7771   6.828   0.233   5.386 -2.0199 -1.8304 -1.1622
 2457WAT      O 7772   7.150   5.434   3.500  0.2842 -0.6670 -0.3648
 2457WAT     H1 7773   7.080   5.369   3.505  0.3248 -0.6602  0.3886
 2457WAT     H2 7774   7.216   5.402   3.562  0.7382 -0.4258 -0.7262
 2458WAT      O 7775   2.905   2.752   2.270 -0.2208  0.4149  0.2699
 2458WAT     H1 7776   2.892   2.776   2.178 -0.2675  0.7380  0.3611
 2458WAT     H2 7777   2.966   2.678   2.267 -0.1014  0.5259 -0.0121
 2459WAT      O 7778   7.649   2.972   1.561 -0.0825 -0.2207 -0.5187
 2459WAT     H1 7779   7.598   3.040   1.517  0.2063  1.1832  1.2110
 2459WAT     H2 7780   7.589   2.898   1.568 -0.7632  0.2195 -1.4636
 2460WAT      O 7781   7.228   5.718   5.513 -0.2653 -0.0679 -0.7860
 2460WAT     H1 7782   7.232   5.794   5.571 -0.2526 -0.2000 -0.6135
 2460WAT     H2 7783   7.135   5.710   5.489 -0.1192  0.6276 -1.6409
 2461WAT      O 7784   4.921   2.452   0.280  0.1221 -0.2946 -0.2289
 2461WAT     H1 7785   5.001   2.462   0.331 -1.2189  3.2647  1.5127
 2461WAT     H2 7786   4.948   2.465   0.189  1.5655  0.7333  0.3184
 2462WAT      O 7787   7.192   3.811   1.870  0.4307 -0.1990 -0.1797
 2462WAT     H1 7788   7.169   3.861   1.948 -2.7276  2.4642 -2.5534
 2462WAT     H2 7789   7.130   3.737   1.870  0.2841 -0.0752 -0.2914
 2463WAT      O 7790   4.278   3.755   3.076 -0.2247  0.3207 -0.3300
 2463WAT     H1 7791   4.189   3.776   3.107 -0.2191 -1.0596  0.7196
 2463WAT     H2 7792   4.335   3.791   3.143 -0.0883 -0.4311 -0.0362
 2464WAT      O 7793   6.130   1.808   4.963  0.3075  0.0608  0.4001
 2464WAT     H1 7794   6.103   1.719   4.986  0.2021  0.6911  2.9965
 2464WAT     H2 7795   6.224   1.802   4.950  0.5240 -0.2173  1.9205
 2465WAT      O 7796   2.346   4.365   1.193  0.4308 -0.5325 -0.8397
 2465WAT     H1 7797   2.260   4.324   1.192  0.6310 -1.0640  1.1795
 2465WAT     H2 7798   2.338   4.436   1.256  0.8890  0.8134 -2.2395
 2466WAT      O 7799   3.550   6.169   0.687  0.1217 -0.2137  0.1388
 2466WAT     H1 7800   3.511   6.115   0.756  1.6470  1.2830  2.3097
 2466WAT     H2 7801   3.495   6.247   0.683 -0.7442 -0.8422 -1.3865
 2467WAT      O 7802   2.813   0.605   4.674  0.3505 -0.0844  0.2104
 2467WAT     H1 7803   2.859   0.544   4.732  0.1428  0.8635  1.4081
 2467WAT     H2 7804   2.759   0.548   4.619  1.0505 -1.0529  0.4885
 2468WAT      O 7805   1.651   7.097   4.831 -0.1082 -0.2064 -0.0576
 2468WAT     H1 7806   1.642   7.123   4.739  1.0202 -0.4186 -0.2453
 2468WAT     H2 7807   1.731   7.142   4.860  0.0228 -0.8388  0.5634
 2469WAT      O 7808   0.253   5.372   2.225 -0.6856  0.0087 -0.6012
 2469WAT     H1 7809   0.271   5.279   2.212  0.2819  0.3206 -1.5507
 2469WAT     H2 7810   0.208   5.399   2.145 -2.5361  0.0018  0.3661
 2470WAT      O 7811   7.455   1.946   2.685 -0.1378  0.5595 -1.1756
 2470WAT     H1 7812   7.484   1.855   2.694 -1.1359  0.2577 -0.7424
 2470WAT     H2 7813   7.489   1.990   2.763  2.4050  1.1821 -2.5542
 2471WAT      O 7814   3.226   1.689   3.586 -0.7640 -0.1508  0.4420
 2471WAT     H1 7815   3.294   1.731   3.638 -0.9718 -0.9169  1.3540
 2471WAT     H2 7816   3.188   1.760   3.534  0.7122  0.2853 -0.0776
 2472WAT      O 7817   6.540   6.347   2.612 -0.3474  0.6962 -0.1225
 2472WAT     H1 7818   6.596   6.365   2.537 -0.9023 -0.0042 -0.7220
 2472WAT     H2 7819   6.469   6.293   2.577 -0.5599  0.2626  0.9236
 2473WAT      O 7820   6.679   4.564   0.298 -0.3560  0.4937  0.0384
 2473WAT     H1 7821   6.666   4.474   0.328 -1.0099  0.4731 -0.2908
 2473WAT     H2 7822   6.600   4.584   0.247  0.1723  0.9583 -0.6117
 2474WAT      O 7823   3.809   5.322   1.576  0.5893  0.1210  0.4924
 2474WAT     H1 7824   3.782   5.386   1.510  0.7093 -0.6144 -0.3035
 2474WAT     H2 7825   3.732   5.265   1.587  0.3478  0.6312  1.4854
 2475WAT      O 7826   0.182   6.167   4.663 -0.9870  0.0741  0.2718
 2475WAT     H1 7827   0.161   6.254   4.696 -1.9431  0.4525 -1.2414
 2475WAT     H2 7828   0.267   6.147   4.702 -1.4394  1.0153  1.8553
 2476WAT      O 7829   1.143   3.816   3.120  0.0604 -0.4229  0.3367
 2476WAT     H1 7830   1.185   3.812   3.034 -0.9794  0.2394 -0.2239
 2476WAT     H2 7831   1.208   3.859   3.176 -0.3293  1.8448 -0.8321
 2477WAT      O 7832   3.963   4.751   4.534  0.1230  0.0911  0.5558
 2477WAT     H1 7833   3.903   4.700   4.588  0.4918  0.3528  1.2344
 2477WAT     H2 7834   4.042   4.760   4.588  1.0298 -0.8096 -0.5820
 2478WAT      O 7835   2.636   1.743   4.079  0.5844 -0.7929 -0.1527
 2478WAT     H1 7836   2.703   1.713   4.141 -0.2703 -1.2455  0.5688
 2478WAT     H2 7837   2.686   1.775   4.004  1.6668  0.3884  1.0255
 2479WAT      O 7838   3.614   0.430   3.911  0.0147 -0.2691 -0.3211
 2479WAT     H1 7839   3.635   0.367   3.980 -0.3245 -0.0375 -0.0025
 2479WAT     H2 7840   3.563   0.497   3.955  0.5140  0.3175 -0.6246
 2480WAT      O 7841   5.319   3.852   1.302  0.0542 -0.3529 -0.5146
 2480WAT     H1 7842   5.285   3.766   1.274 -3.5891  0.6963  0.1642
 2480WAT     H2 7843   5.306   3.853   1.397  1.0707  0.5783 -0.3678
 2481WAT      O 7844   0.606   1.532   3.858  0.0909 -0.1655  0.0201
 2481WAT     H1 7845   0.697   1.558   3.872  0.1021 -0.7820  1.2500
 2481WAT     H2 7846   0.612   1.441   3.828  0.0013  0.7696 -3.0783
 2482WAT      O 7847   2.116   6.323   6.224  0.6371  0.8817 -0.2487
 2482WAT     H1 7848   2.070   6.244   6.194  2.4140 -0.1200 -0.4573
 2482WAT     H2 7849   2.051   6.368   6.278 -0.5385 -0.5518 -0.3796
 2483WAT      O 7850   5.288   6.875   3.914  0.3037  0.0170  0.2075
 2483WAT     H1 7851   5.225   6.939   3.947  0.9698  0.7096  0.1750
 2483WAT     H2 7852   5.329   6.839   3.993  2.0495  1.8306  0.1873
 2484WAT      O 7853   3.749   3.676   1.775  0.1488 -0.7307 -0.3692
 2484WAT     H1 7854   3.696   3.665   1.854  0.5073 -1.0201 -0.1611
 2484WAT     H2 7855   3.774   3.768   1.775 -2.3211  0.0450 -1.7526
 2485WAT      O 7856   4.324   2.260   3.650 -0.2797  0.0316  0.2946
 2485WAT     H1 7857   4.283   2.175   3.666 -1.0465 -0.3371 -2.9111
 2485WAT     H2 7858   4.370   2.280   3.731 -2.4092 -2.0796  2.1647
 2486WAT      O 7859   7.327   0.447   4.038 -0.3236  0.1810 -0.5448
 2486WAT     H1 7860   7.305   0.539   4.023  1.3778  0.6510 -0.3346
 2486WAT     H2 7861   7.383   0.448   4.116  1.5238 -0.7584 -1.8021
 2487WAT      O 7862   6.897   5.777   6.173  0.2473  0.3866 -0.2205
 2487WAT     H1 7863   6.862   5.776   6.262 -0.0475 -0.9275 -0.3264
 2487WAT     H2 7864   6.876   5.864   6.139 -1.0064  0.3711  0.4612
 2488WAT      O 7865   3.055   1.722   5.079 -0.7624  0.1806  0.3076
 2488WAT     H1 7866   3.100   1.777   5.015 -1.0666 -1.3012 -1.2337
 2488WAT     H2 7867   3.125   1.672   5.121 -0.7614 -0.6880 -0.6933
 2489WAT      O 7868   5.434   0.205   5.840  0.0725  0.3562 -0.2775
 2489WAT     H1 7869   5.408   0.259   5.914  1.1178 -0.4816  0.7230
 2489WAT     H2 7870   5.530   0.205   5.842  0.1445 -2.4190  0.4571
 2490WAT      O 7871   0.656   2.067   6.205 -0.2276  0.0586  0.1362
 2490WAT     H1 7872   0.690   1.978   6.216 -1.3757 -0.1748  2.1517
 2490WAT     H2 7873   0.714   2.122   6.258 -0.4597  0.2912  0.1504
 2491WAT      O 7874   2.184   5.387   3.390 -0.3450  0.2897  0.4862
 2491WAT     H1 7875   2.110   5.412   3.444 -1.1943 -0.1008 -0.4596
 2491WAT     H2 7876   2.211   5.301   3.423 -0.6937  0.1707  0.4672
 2492WAT      O 7877   7.522   0.604   5.808 -0.3462  0.3639 -0.3959
 2492WAT     H1 7878   7.428   0.611   5.826 -0.3224 -0.7353  0.2302
 2492WAT     H2 7879   7.557   0.557   5.883  0.9614  1.9981  0.0693
 2493WAT      O 7880   1.941   6.538   2.956 -0.6589 -0.0384 -0.1516
 2493WAT     H1 7881   2.023   6.579   2.929 -0.5766 -0.3396 -0.3571
 2493WAT     H2 7882   1.881   6.612   2.969 -0.1108  0.2572  0.8717
 2494WAT      O 7883   5.495   1.431   5.962  0.2451  0.2991  0.0996
 2494WAT     H1 7884   5.534   1.346   5.945  0.1977  0.6037 -1.6872
 2494WAT     H2 7885   5.413   1.412   6.007  0.4952 -0.5545  0.2049
 2495WAT      O 7886   5.600   5.724   0.356  0.1811 -0.3437  0.5553
 2495WAT     H1 7887   5.629   5.777   0.430  0.9802 -1.4845  1.0915
 2495WAT     H2 7888   5.572   5.641   0.395 -0.5997 -0.5068 -0.3069
 2496WAT      O 7889   2.080   4.818   3.752  0.7470  0.3942 -0.4315
 2496WAT     H1 7890   2.080   4.723   3.744  1.9444  0.1594  1.5638
 2496WAT     H2 7891   2.041   4.849   3.671 -0.1053 -1.8004 -0.9414
 2497WAT      O 7892   3.821   5.719   1.769  0.2665  0.9218  0.2885
 2497WAT     H1 7893   3.733   5.708   1.805 -0.7871  1.9111 -1.8146
 2497WAT     H2 7894   3.846   5.808   1.794  0.5317  0.7613  0.5976
 2498WAT      O 7895   5.560   2.622   4.607  0.5321 -0.6284 -0.3578
 2498WAT     H1 7896   5.524   2.667   4.684 -0.2184  0.3306 -1.2315
 2498WAT     H2 7897   5.655   2.622   4.621  0.3809 -0.8194  0.7404
 2499WAT      O 7898   6.426   5.517   0.340 -0.0932 -0.3493 -0.2871
 2499WAT     H1 7899   6.490   5.514   0.410  1.2614  0.4743 -1.4318
 2499WAT     H2 7900   6.404   5.425   0.324  0.0568 -0.5808  0.7583
 2500WAT      O 7901   5.228   2.970   6.177 -0.1968 -0.1735 -0.6364
 2500WAT     H1 7902   5.323   2.986   6.174 -0.1005 -0.4736  0.3099
 2500WAT     H2 7903   5.196   3.036   6.239 -0.2714 -1.4832  0.7734
 2501WAT      O 7904   4.141   0.200   1.890 -0.2778 -0.1731 -0.4408
 2501WAT     H1 7905   4.144   0.158   1.805  1.1667  0.1064 -0.5567
 2501WAT     H2 7906   4.215   0.163   1.938 -1.1054 -0.3720  0.7234
 2502WAT      O 7907   2.646   5.578   3.140 -0.2008  0.4741 -0.0925
 2502WAT     H1 7908   2.712   5.622   3.193 -0.3135  1.8650 -1.0446
 2502WAT     H2 7909   2.652   5.486   3.165  0.9740  0.8260  1.0057
 2503WAT      O 7910   5.067   6.626   2.727  0.3785  0.0966  0.0929
 2503WAT     H1 7911   4.973   6.611   2.724  0.5591 -0.9915 -0.9052
 2503WAT     H2 7912   5.084   6.657   2.816 -0.9177  0.3645  0.2602
 2504WAT      O 7913   7.263   1.582   3.394 -0.2542  0.3129 -0.0355
 2504WAT     H1 7914   7.233   1.493   3.410  1.7428 -0.1743  1.4826
 2504WAT     H2 7915   7.200   1.638   3.439  0.5792 -0.6243  2.4475
 2505WAT      O 7916   0.529   3.765   0.734 -0.6308 -0.2071 -0.5581
 2505WAT     H1 7917   0.621   3.745   0.720  0.2066  2.9399 -0.1798
 2505WAT     H2 7918   0.509   3.728   0.820  0.9557  1.0140  0.3796
 2506WAT      O 7919   3.072   1.320   0.603  0.1154  0.0553  0.1470
 2506WAT     H1 7920   3.120   1.352   0.680 -0.1004 -0.0768  0.3359
 2506WAT     H2 7921   2.991   1.371   0.602  0.2895  0.3272 -0.2136
 2507WAT      O 7922   4.296   6.579   6.224 -0.1262 -0.1865  0.1086
 2507WAT     H1 7923   4.390   6.597   6.225  0.0727 -1.1904  0.8950
 2507WAT     H2 7924   4.274   6.570   6.131  0.5074  0.2630 -0.0871
 2508WAT      O 7925   5.705   2.612   2.961 -0.6225 -0.5472  0.3197
 2508WAT     H1 7926   5.774   2.649   2.905 -1.0570 -0.3601 -0.1033
 2508WAT     H2 7927   5.741   2.616   3.049 -0.1354 -0.3446  0.1174
 2509WAT      O 7928   4.179   1.389   4.343 -0.2535  0.4086 -1.0829
 2509WAT     H1 7929   4.214   1.449   4.408 -0.3925 -2.7000  2.1697
 2509WAT     H2 7930   4.088   1.377   4.368 -0.0416 -1.6365 -1.0870
 2510WAT      O 7931   2.070   1.189   0.592  0.4279 -0.0991 -0.4212
 2510WAT     H1 7932   2.094   1.135   0.517 -0.1606 -2.8327  1.2055
 2510WAT     H2 7933   2.106   1.142   0.667 -0.7897  1.4103  1.1900
 2511WAT      O 7934   0.165   6.207   3.830  0.6185 -0.0601  0.1350
 2511WAT     H1 7935   0.126   6.183   3.914  1.2000 -0.0018  0.4202
 2511WAT     H2 7936   0.129   6.293   3.810 -0.4413 -0.5684 -0.2534
 2512WAT      O 7937   5.264   2.815   1.874  0.1972  0.8413 -0.4714
 2512WAT     H1 7938   5.240   2.764   1.951 -0.5481 -0.4906 -1.5543
 2512WAT     H2 7939   5.352   2.785   1.851  1.2405  2.6049  0.9222
 2513WAT      O 7940   6.991   4.980   5.779 -0.4496  0.1437  0.0683
 2513WAT     H1 7941   6.938   5.060   5.771 -0.0655  0.4029  0.0603
 2513WAT     H2 7942   6.938   4.922   5.834 -0.6125  0.5114  0.3082
 2514WAT      O 7943   1.097   1.841   2.131  0.5587  0.2982 -0.2470
 2514WAT     H1 7944   1.122   1.908   2.067  0.2353 -0.4303 -1.1671
 2514WAT     H2 7945   1.012   1.869   2.163  0.8015  0.7626  0.0004
 2515WAT      O 7946   4.014   0.165   0.907  0.5293  0.2928  0.1707
 2515WAT     H1 7947   4.069   0.233   0.868  0.2884  1.9412  2.4405
 2515WAT     H2 7948   4.075   0.105   0.949  0.6832  1.0217  1.0139
 2516WAT      O 7949   1.789   1.852   2.852 -0.5423  0.0479  0.5090
 2516WAT     H1 7950   1.809   1.903   2.773 -1.0416 -0.5788 -0.0427
 2516WAT     H2 7951   1.821   1.905   2.924 -0.3013  0.7554 -0.1048
 2517WAT      O 7952   3.626   1.794   5.983 -0.5668 -0.2084  0.0127
 2517WAT     H1 7953   3.606   1.729   5.916 -0.6063 -1.4670  1.1995
 2517WAT     H2 7954   3.543   1.806   6.030 -0.4898  0.5013 -0.0224
 2518WAT      O 7955   1.866   2.229   2.432  0.2418  0.1557  0.6339
 2518WAT     H1 7956   1.783   2.265   2.464 -0.5906 -1.8346  0.8060
 2518WAT     H2 7957   1.932   2.281   2.478 -0.8896  1.4525  0.8790
 2519WAT      O 7958   3.977   6.257   5.711  0.2504 -0.2480 -0.8082
 2519WAT     H1 7959   3.958   6.209   5.792 -2.0616  1.1127 -0.4660
 2519WAT     H2 7960   4.051   6.314   5.734  0.3039 -0.6283  0.0114
 2520WAT      O 7961   7.638   4.980   5.584  0.3358 -0.3337 -0.6311
 2520WAT     H1 7962   7.642   5.000   5.677 -2.7164 -0.7832 -0.2973
 2520WAT     H2 7963   7.659   5.063   5.541  0.0796  0.3503  0.5089
 2521WAT      O 7964   0.394   0.383   4.053  0.1145 -0.5208 -0.1171
 2521WAT     H1 7965   0.339   0.382   3.974 -0.5574 -2.2504  0.3159
 2521WAT     H2 7966   0.410   0.291   4.071  1.4485 -0.0983  0.9782
 2522WAT      O 7967   4.544   5.679   2.056  0.0035  0.3797  1.0174
 2522WAT     H1 7968   4.449   5.695   2.049  0.0740  0.3263 -0.2209
 2522WAT     H2 7969   4.552   5.613   2.125 -0.9505 -0.4285  0.3713
 2523WAT      O 7970   4.362   0.846   5.594  0.1128  0.1222  0.3441
 2523WAT     H1 7971   4.300   0.804   5.534  1.5352 -0.5218 -0.7354
 2523WAT     H2 7972   4.307   0.881   5.665 -1.5200  0.0237 -0.8110
 2524WAT      O 7973   6.520   1.342   4.003 -0.4133  0.0281  0.2177
 2524WAT     H1 7974   6.599   1.377   3.960 -0.5218 -0.5597 -0.4811
 2524WAT     H2 7975   6.448   1.373   3.949 -0.4408 -2.4725 -1.3723
 2525WAT      O 7976   5.172   4.931   3.848 -0.3442 -0.0127 -0.1409
 2525WAT     H1 7977   5.245   4.879   3.814 -0.6078  0.3887 -1.3662
 2525WAT     H2 7978   5.207   5.021   3.852 -0.0385 -0.1670  1.5277
 2526WAT      O 7979   5.219   2.704   6.110 -0.0331 -0.1967  0.0151
 2526WAT     H1 7980   5.313   2.695   6.125 -0.4214 -1.2648  2.2144
 2526WAT     H2 7981   5.204   2.798   6.105  0.9637  0.0746  1.4354
 2527WAT      O 7982   6.610   6.159   5.377 -0.3373  0.3147  0.0102
 2527WAT     H1 7983   6.690   6.203   5.350  1.5876 -1.6232  2.0861
 2527WAT     H2 7984   6.551   6.230   5.403  2.5481  1.8337  3.1482
 2528WAT      O 7985   7.206   6.864   3.166 -0.1705  0.0351  0.0922
 2528WAT     H1 7986   7.297   6.896   3.166 -0.0193 -0.3636  0.6245
 2528WAT     H2 7987   7.188   6.845   3.258 -1.3373  1.5952  0.2108
 2529WAT      O 7988   0.612   4.173   2.515  0.0833 -0.1520  0.3157
 2529WAT     H1 7989   0.675   4.236   2.549  0.1522  1.7291 -2.8770
 2529WAT     H2 7990   0.590   4.118   2.590  0.9752  2.8645  3.0244
 2530WAT      O 7991   2.592   0.619   2.677 -0.0348 -0.5243  0.5885
 2530WAT     H1 7992   2.524   0.610   2.744 -2.0594 -0.1605 -1.3173
 2530WAT     H2 7993   2.621   0.710   2.685  0.0835 -0.6180  1.2744
 2531WAT      O 7994   7.268   3.818   6.243  0.1541 -0.1029  0.0689
 2531WAT     H1 7995   7.175   3.827   6.223  0.2584  1.7624  0.2750
 2531WAT     H2 7996   7.280   3.724   6.259 -1.6795 -0.3817  0.0159
 2532WAT      O 7997   3.527   2.016   1.913  0.1163  0.4210 -0.0726
 2532WAT     H1 7998   3.471   2.094   1.923  0.8828  1.0042 -0.2550
 2532WAT     H2 7999   3.599   2.031   1.974 -0.6076 -0.9744  1.1749
 2533WAT      O 8000   6.896   0.963   4.188 -0.4343  0.0129 -0.1945
 2533WAT     H1 8001   6.937   0.907   4.254  0.8986  0.3657 -0.6809
 2533WAT     H2 8002   6.951   1.041   4.185 -1.5058  0.7864 -0.4635
 2534WAT      O 8003   0.885   6.085   3.411 -0.0709  0.1255 -0.3836
 2534WAT     H1 8004   0.875   6.101   3.317 -0.4494 -0.4925 -0.4572
 2534WAT     H2 8005   0.850   6.164   3.453 -1.1412 -0.1328 -0.7419
 2535WAT      O 8006   4.444   6.065   0.544  0.2119  0.5368 -0.1327
 2535WAT     H1 8007   4.528   6.019   0.538 -1.3109 -2.3883 -1.5134
 2535WAT     H2 8008   4.429   6.074   0.638  1.2362 -0.6292  0.1766
 2536WAT      O 8009   7.649   6.768   5.736  0.1544  0.2732  0.3031
 2536WAT     H1 8010   7.589   6.765   5.810 -2.8698  1.5917 -1.9173
 2536WAT     H2 8011   7.619   6.699   5.677  0.9914  0.7743 -0.7491
 2537WAT      O 8012   4.195   3.655   4.593  0.2813  0.1503 -0.2282
 2537WAT     H1 8013   4.266   3.655   4.658  2.3921  2.1201 -2.3367
 2537WAT     H2 8014   4.151   3.739   4.606 -1.1263 -0.6678  0.4551
 2538WAT      O 8015   6.565   1.327   2.391 -0.1101  0.0428  0.4238
 2538WAT     H1 8016   6.622   1.288   2.325 -0.9593 -1.7489  0.6775
 2538WAT     H2 8017   6.555   1.258   2.457 -0.2977  1.3392  1.7797
 2539WAT      O 8018   4.166   5.713   4.204  0.3546  0.3062  0.3057
 2539WAT     H1 8019   4.193   5.775   4.272  0.1014  0.9796 -0.2022
 2539WAT     H2 8020   4.245   5.700   4.152  0.8267 -0.9773  1.2913
 2540WAT      O 8021   3.159   4.744   4.349 -0.2729 -0.0200  0.3255
 2540WAT     H1 8022   3.136   4.673   4.408 -0.8161 -0.2207 -0.1236
 2540WAT     H2 8023   3.171   4.820   4.406  1.4161 -0.6962  0.9451
 2541WAT      O 8024   2.113   0.565   4.933  0.6212  0.3535 -0.0955
 2541WAT     H1 8025   2.186   0.513   4.968 -0.4460 -0.2483  1.3592
 2541WAT     H2 8026   2.145   0.655   4.936  1.2946  0.1088  0.5668
 2542WAT      O 8027   0.414   4.931   3.228  0.8291 -0.3237 -0.4128
 2542WAT     H1 8028   0.401   4.974   3.313  1.5063  0.5206 -0.7171
 2542WAT     H2 8029   0.490   4.874   3.242 -0.7692 -2.4081  0.3243
 2543WAT      O 8030   6.720   1.102   1.500 -0.4986 -0.2641 -0.4188
 2543WAT     H1 8031   6.806   1.119   1.462 -0.3556  2.0890  0.7810
 2543WAT     H2 8032   6.689   1.022   1.456  1.1942  0.2429 -2.7032
 2544WAT      O 8033   6.957   1.537   5.610 -0.0745 -0.0291  0.0144
 2544WAT     H1 8034   7.051   1.528   5.594 -0.1019  0.4189 -0.4059
 2544WAT     H2 8035   6.938   1.472   5.678  0.5322 -0.1414  0.0798
 2545WAT      O 8036   5.187   3.018   0.231 -0.1169  0.0186 -0.1295
 2545WAT     H1 8037   5.129   2.946   0.211 -0.4313  0.3303 -0.3549
 2545WAT     H2 8038   5.193   3.019   0.327  1.2724 -1.3830 -0.1593
 2546WAT      O 8039   0.468   1.031   4.830 -0.1789  0.0988  0.5621
 2546WAT     H1 8040   0.448   0.953   4.777 -0.2469 -1.2025  2.3967
 2546WAT     H2 8041   0.382   1.067   4.853 -0.1549  0.5346 -0.0296
 2547WAT      O 8042   4.189   2.538   1.810  0.1611 -0.4664  0.3283
 2547WAT     H1 8043   4.157   2.610   1.866 -3.2268 -0.7819 -0.9321
 2547WAT     H2 8044   4.109   2.493   1.782  2.0631 -3.7127 -0.3514
 2548WAT      O 8045   0.461   6.705   3.336 -0.0739 -0.0454  0.0636
 2548WAT     H1 8046   0.465   6.801   3.340  1.2991 -0.0185 -0.9759
 2548WAT     H2 8047   0.443   6.677   3.425 -0.8922  1.1885  0.3098
 2549WAT      O 8048   2.653   4.723   1.787  0.3219  0.2175  0.0536
 2549WAT     H1 8049   2.697   4.718   1.872 -0.3169 -1.5465  0.3122
 2549WAT     H2 8050   2.595   4.799   1.794  0.0867 -0.0672  1.2897
 2550WAT      O 8051   3.885   3.243   1.637  0.0935 -1.0369 -0.1718
 2550WAT     H1 8052   3.895   3.244   1.732 -2.4326  1.3053  0.1831
 2550WAT     H2 8053   3.839   3.161   1.618 -0.0465 -1.1732  0.7294
 2551WAT      O 8054   2.555   1.750   5.649 -0.4867 -0.1129  0.3076
 2551WAT     H1 8055   2.588   1.660   5.651 -1.7110 -0.5639  1.4514
 2551WAT     H2 8056   2.570   1.783   5.738  0.3285  0.9825 -0.2042
 2552WAT      O 8057   5.307   6.544   4.583  0.8234  0.2999  0.7734
 2552WAT     H1 8058   5.310   6.449   4.574 -0.4602  0.3683 -0.9176
 2552WAT     H2 8059   5.253   6.560   4.661 -1.2418 -0.3867 -0.4498
 2553WAT      O 8060   0.237   0.908   5.782  0.0102  0.4902 -0.5581
 2553WAT     H1 8061   0.213   0.826   5.738 -1.1952  0.6598 -0.2504
 2553WAT     H2 8062   0.210   0.976   5.721  2.1006  0.7006 -1.3632
 2554WAT      O 8063   6.612   0.403   5.086  0.2158 -0.0587  0.0848
 2554WAT     H1 8064   6.595   0.401   5.180 -0.2342  0.9134  0.0333
 2554WAT     H2 8065   6.701   0.369   5.077  1.5529  2.8328  1.1940
 2555WAT      O 8066   0.553   5.874   0.732  0.1050  0.4580 -0.0783
 2555WAT     H1 8067   0.524   5.847   0.819 -1.7042  0.1162 -0.7265
 2555WAT     H2 8068   0.557   5.969   0.737 -1.5472  0.5631 -0.0066
 2556WAT      O 8069   3.423   3.228   4.487 -0.7648  0.9202 -0.5647
 2556WAT     H1 8070   3.377   3.229   4.571 -1.9108  0.4715 -1.1643
 2556WAT     H2 8071   3.514   3.210   4.510 -1.0683  0.7369  0.5766
 2557WAT      O 8072   5.581   4.217   4.935  0.0450  0.2997 -0.1537
 2557WAT     H1 8073   5.618   4.150   4.993 -1.0925  0.7062  1.0958
 2557WAT     H2 8074   5.622   4.299   4.962 -1.4640  0.7094  1.0551
 2558WAT      O 8075   6.332   6.108   1.960 -0.4054  0.6799  0.8460
 2558WAT     H1 8076   6.379   6.043   2.013 -1.7545  0.2440  1.5379
 2558WAT     H2 8077   6.378   6.190   1.976 -0.7790  0.5635  2.7150
 2559WAT      O 8078   7.137   0.168   4.582  0.3119 -0.3814 -0.4822
 2559WAT     H1 8079   7.174   0.234   4.522  1.4568 -0.5346  0.0447
 2559WAT     H2 8080   7.212   0.133   4.629 -0.5619 -0.3028  1.0270
 2560WAT      O 8081   4.557   6.259   3.360 -0.0054 -0.2047  0.0414
 2560WAT     H1 8082   4.543   6.259   3.455  0.4441 -0.8104  0.1173
 2560WAT     H2 8083   4.531   6.347   3.332 -0.6543 -0.1915  0.6458
 2561WAT      O 8084   5.402   3.432   4.492  0.0008 -0.1396 -0.0066
 2561WAT     H1 8085   5.481   3.396   4.452  1.0230  0.1693  1.6550
 2561WAT     H2 8086   5.367   3.492   4.426  1.1073 -0.3537 -0.8075
 2562WAT      O 8087   0.548   6.686   1.362  0.3541  0.8104 -0.5223
 2562WAT     H1 8088   0.631   6.686   1.316  1.0512 -1.8125  0.5422
 2562WAT     H2 8089   0.482   6.695   1.293  1.4520  0.1872 -1.6857
 2563WAT      O 8090   1.575   6.753   2.649 -0.7588  0.2872 -0.3672
 2563WAT     H1 8091   1.643   6.717   2.592 -1.8778  0.4856 -1.8770
 2563WAT     H2 8092   1.616   6.757   2.735  1.6781  1.8573 -1.5003
 2564WAT      O 8093   4.318   3.579   1.259 -0.2498  0.2457 -0.2453
 2564WAT     H1 8094   4.276   3.615   1.337  0.0787 -1.3563  0.7088
 2564WAT     H2 8095   4.351   3.656   1.212  0.3643  1.2073  1.6647
 2565WAT      O 8096   5.212   7.120   0.070 -0.2798  0.6208  0.2343
 2565WAT     H1 8097   5.195   7.029   0.095 -1.2721 -0.3128 -3.2354
 2565WAT     H2 8098   5.141   7.170   0.111 -0.8038 -0.4484  0.6743
 2566WAT      O 8099   2.121   2.859   5.262  0.0743 -0.4784  0.2960
 2566WAT     H1 8100   2.044   2.821   5.303  0.4471 -0.6820  0.8137
 2566WAT     H2 8101   2.192   2.798   5.281  0.4360 -0.1207  0.1203
 2567WAT      O 8102   2.102   5.653   5.397 -0.1961  0.4805  0.8822
 2567WAT     H1 8103   2.063   5.571   5.365  0.4829  0.7164 -0.5797
 2567WAT     H2 8104   2.037   5.686   5.460 -1.3057 -0.2773  0.1831
 2568WAT      O 8105   5.802   1.463   3.060 -0.0536  0.5131  0.2927
 2568WAT     H1 8106   5.760   1.549   3.066 -0.8288  0.1263  0.4319
 2568WAT     H2 8107   5.823   1.440   3.150  0.1785  0.5651  0.2529
 2569WAT      O 8108   4.623   6.652   4.451 -0.3025 -0.0844  0.1769
 2569WAT     H1 8109   4.565   6.652   4.527 -1.7129  0.1792 -0.8513
 2569WAT     H2 8110   4.611   6.738   4.411  0.4341 -0.2027 -0.3242
 2570WAT      O 8111   3.192   5.582   0.393 -0.0465 -0.3321  0.1216
 2570WAT     H1 8112   3.128   5.613   0.457  0.6505  0.8091  0.2976
 2570WAT     H2 8113   3.192   5.649   0.324  0.6475 -0.5261 -0.0784
 2571WAT      O 8114   0.467   1.968   2.040  0.4189 -0.1149 -0.7820
 2571WAT     H1 8115   0.539   1.911   2.069  0.0472 -0.1571  0.0965
 2571WAT     H2 8116   0.472   2.044   2.098  0.7805  0.6806 -1.8151
 2572WAT      O 8117   2.362   5.983   4.655  0.4828  0.1163 -0.0946
 2572WAT     H1 8118   2.317   6.055   4.699  0.5823 -0.7370  1.4671
 2572WAT     H2 8119   2.426   6.027   4.598 -1.5312  1.3076 -1.5621
 2573WAT      O 8120   1.025   4.564   0.104  0.3878 -0.2933  0.3823
 2573WAT     H1 8121   0.998   4.630   0.040  0.4150 -1.3380 -0.7513
 2573WAT     H2 8122   0.963   4.574   0.177 -0.0541  0.5029 -0.0919
 2574WAT      O 8123   4.199   1.199   5.392  0.0283  0.1419 -0.0765
 2574WAT     H1 8124   4.250   1.272   5.358 -0.0033  0.2381  0.0837
 2574WAT     H2 8125   4.115   1.237   5.415  0.3283  0.2450  0.8823
 2575WAT      O 8126   5.615   5.180   1.527  0.7844  0.0240  0.2322
 2575WAT     H1 8127   5.696   5.225   1.505  0.2067  0.6929 -0.5731
 2575WAT     H2 8128   5.619   5.168   1.622  1.6277  0.4230  0.2515
 2576WAT      O 8129   7.242   5.494   4.309  0.7098  0.5279 -0.9079
 2576WAT     H1 8130   7.226   5.483   4.403  1.3467 -1.6214 -0.9905
 2576WAT     H2 8131   7.294   5.574   4.302  1.0030  0.4954  0.6230
 2577WAT      O 8132   3.279   3.215   0.260  0.0944  0.0827  0.2613
 2577WAT     H1 8133   3.230   3.163   0.323 -1.0551  0.6499 -0.1273
 2577WAT     H2 8134   3.364   3.230   0.301  1.3885 -3.9785 -0.5341
 2578WAT      O 8135   5.882   0.454   3.663  0.4653 -0.6541  0.1933
 2578WAT     H1 8136   5.889   0.368   3.703  0.2610 -2.6146 -3.6024
 2578WAT     H2 8137   5.802   0.451   3.612 -0.2335  2.3229  0.9173
 2579WAT      O 8138   4.423   2.453   2.836  0.1815  0.1427 -0.0040
 2579WAT     H1 8139   4.398   2.478   2.925 -0.6559 -2.0499  0.4412
 2579WAT     H2 8140   4.344   2.469   2.784  0.1867  0.0152 -0.0509
 2580WAT      O 8141   5.122   2.425   1.022  0.8907 -0.2069 -0.1667
 2580WAT     H1 8142   5.086   2.461   1.102  0.0997 -0.2834 -0.4809
 2580WAT     H2 8143   5.046   2.394   0.973  1.3473 -0.0269 -1.0106
 2581WAT      O 8144   5.483   2.740   4.870 -0.0075  0.2034  0.0075
 2581WAT     H1 8145   5.393   2.712   4.887 -0.3054  0.9932 -0.2459
 2581WAT     H2 8146   5.522   2.750   4.956 -0.4500  0.7869  0.1404
 2582WAT      O 8147   3.636   6.724   5.886 -0.2271 -0.1340  0.0186
 2582WAT     H1 8148   3.585   6.784   5.941  0.8271  0.4156  0.4320
 2582WAT     H2 8149   3.693   6.781   5.835  0.7274 -0.7689  0.3434
 2583WAT      O 8150   2.503   2.500   5.118  0.4525 -1.0660 -0.1055
 2583WAT     H1 8151   2.433   2.487   5.181 -0.0161 -0.5627 -0.5163
 2583WAT     H2 8152   2.548   2.415   5.114 -0.8751 -1.7758 -0.7360
 2584WAT      O 8153   2.019   1.675   0.164  0.4741 -0.0760 -0.2851
 2584WAT     H1 8154   2.113   1.691   0.172  0.5728 -0.5026 -0.5283
 2584WAT     H2 8155   1.978   1.757   0.191  0.8850 -0.1814  0.7153
 2585WAT      O 8156   3.210   0.257   2.072  0.1896  0.7414  0.2750
 2585WAT     H1 8157   3.236   0.328   2.131  0.5670  2.4368 -1.7877
 2585WAT     H2 8158   3.124   0.283   2.040  0.8437  0.9615 -1.4299
 2586WAT      O 8159   2.356   3.843   4.568  0.4947  0.1961 -0.6863
 2586WAT     H1 8160   2.262   3.826   4.568  0.8122 -2.2319  1.5184
 2586WAT     H2 8161   2.394   3.766   4.527  1.5943  0.4442 -0.1735
 2587WAT      O 8162   2.903   4.246   4.575  0.5226  0.0117  0.2480
 2587WAT     H1 8163   2.866   4.222   4.660 -0.3594 -0.4039 -0.2297
 2587WAT     H2 8164   2.890   4.168   4.521 -1.4745  1.1650 -1.0550
 2588WAT      O 8165   4.916   5.464   6.109  0.0784  0.2769  0.1075
 2588WAT     H1 8166   4.853   5.419   6.053 -0.7389 -0.7915  1.7808
 2588WAT     H2 8167   4.997   5.414   6.100 -0.6499 -1.2380  1.4699
 2589WAT      O 8168   3.390   2.883   4.685 -0.3473 -0.7930 -0.1169
 2589WAT     H1 8169   3.330   2.958   4.687  1.3209  0.8586 -3.5060
 2589WAT     H2 8170   3.354   2.825   4.619 -0.1965 -1.7305  0.6025
 2590WAT      O 8171   4.266   5.811   6.233  0.4908  0.7823  0.5832
 2590WAT     H1 8172   4.202   5.859   6.286 -0.2149  1.2194 -0.6123
 2590WAT     H2 8173   4.350   5.847   6.259  0.0069  2.4188  0.0206
 2591WAT      O 8174   0.917   1.113   4.419  0.4176  0.4635  0.0917
 2591WAT     H1 8175   0.883   1.202   4.414 -0.4102  0.2836  1.8618
 2591WAT     H2 8176   0.847   1.059   4.381 -0.3384  0.3164  1.6381
 2592WAT      O 8177   7.352   1.561   2.908  0.2991  0.5283 -0.1895
 2592WAT     H1 8178   7.433   1.512   2.923  0.8632  1.0058 -1.4952
 2592WAT     H2 8179   7.309   1.563   2.994  1.2428 -0.4810  0.3375
 2593WAT      O 8180   2.504   6.412   5.100 -0.0378  0.3573 -0.0509
 2593WAT     H1 8181   2.411   6.408   5.078  0.1597  0.7738 -1.0139
 2593WAT     H2 8182   2.512   6.361   5.181 -1.3536  1.5641  0.8875
 2594WAT      O 8183   3.271   0.390   4.957  0.1863  0.0843 -0.5649
 2594WAT     H1 8184   3.276   0.422   4.867 -0.2191  0.3949 -0.4814
 2594WAT     H2 8185   3.219   0.456   5.003 -0.0308 -0.3225 -0.2150
 2595WAT      O 8186   0.114   2.033   2.451 -0.3300 -0.2587 -0.3566
 2595WAT     H1 8187   0.143   1.973   2.382 -1.2234 -0.0709 -0.9048
 2595WAT     H2 8188   0.118   1.981   2.531 -0.8038 -0.9585 -0.7814
 2596WAT      O 8189   0.305   3.855   4.981  0.4713 -0.2458 -0.0551
 2596WAT     H1 8190   0.279   3.829   4.892 -0.6806 -0.7933  0.4189
 2596WAT     H2 8191   0.399   3.871   4.974  0.4647 -0.5886 -1.3047
 2597WAT      O 8192   3.764   1.532   0.111  0.5195 -0.5449 -0.1436
 2597WAT     H1 8193   3.834   1.523   0.175  0.2032  2.1341  0.6750
 2597WAT     H2 8194   3.711   1.605   0.142 -1.7413 -1.4410 -1.5946
 2598WAT      O 8195   3.864   1.466   1.384 -0.3182  0.2183  0.3480
 2598WAT     H1 8196   3.904   1.496   1.466  0.4568 -1.9139  0.8231
 2598WAT     H2 8197   3.795   1.406   1.413 -1.9664  1.5942 -0.5422
 2599WAT      O 8198   1.488   6.257   2.783 -0.0678  0.4101  0.0847
 2599WAT     H1 8199   1.442   6.176   2.804  2.4805 -1.3037 -0.4306
 2599WAT     H2 8200   1.562   6.259   2.843 -0.7245  3.1095  0.9728
 2600WAT      O 8201   4.689   4.293   0.904  0.0084  0.7508  0.1581
 2600WAT     H1 8202   4.619   4.306   0.969  0.0423  2.2060 -0.0561
 2600WAT     H2 8203   4.709   4.200   0.908 -0.0094  0.7978  2.2261
 2601WAT      O 8204   5.240   1.662   4.990  0.6256 -0.4225 -0.8260
 2601WAT     H1 8205   5.153   1.696   5.011 -0.1604 -2.2143 -0.9576
 2601WAT     H2 8206   5.298   1.700   5.056 -0.4806 -0.1649  0.0229
 2602WAT      O 8207   5.653   5.077   4.797  0.5552  0.0853 -0.0309
 2602WAT     H1 8208   5.565   5.111   4.815  1.1603  0.7491  1.9528
 2602WAT     H2 8209   5.664   5.005   4.860  1.8287  0.7594  0.5559
 2603WAT      O 8210   7.513   6.810   4.092 -0.6772 -0.2329 -0.2169
 2603WAT     H1 8211   7.584   6.824   4.030  0.3187 -0.3586  0.8736
 2603WAT     H2 8212   7.477   6.897   4.108 -0.8666 -0.1871 -0.8753
 2604WAT      O 8213   6.549   0.923   1.378 -0.0048  0.1931 -0.1187
 2604WAT     H1 8214   6.481   0.989   1.386 -0.6824 -0.4814 -0.1164
 2604WAT     H2 8215   6.533   0.863   1.451  0.9081  0.3021  0.1786
 2605WAT      O 8216   1.957   6.362   4.895  0.0744  0.0013 -0.1329
 2605WAT     H1 8217   1.878   6.400   4.932  0.3649  1.0539 -0.5521
 2605WAT     H2 8218   1.956   6.388   4.803  1.1441  0.4482 -0.0348
 2606WAT      O 8219   3.576   5.593   0.326  0.4909  0.3678  0.1622
 2606WAT     H1 8220   3.534   5.556   0.404 -0.3823  0.6272 -0.1725
 2606WAT     H2 8221   3.595   5.517   0.271  0.2208  0.2690  0.2043
 2607WAT      O 8222   0.678   1.993   2.917 -0.2266  0.5321 -0.1653
 2607WAT     H1 8223   0.701   1.900   2.926  0.3820  0.5501 -1.3368
 2607WAT     H2 8224   0.596   1.993   2.870 -0.7212  0.5796  0.6727
 2608WAT      O 8225   2.449   5.612   0.487  0.1094 -0.2542 -0.3188
 2608WAT     H1 8226   2.394   5.555   0.433 -3.1346  1.0973  1.3038
 2608WAT     H2 8227   2.417   5.700   0.469  1.9092  0.6518  0.6173
 2609WAT      O 8228   2.321   1.112   1.853  0.0743  0.3735  0.0757
 2609WAT     H1 8229   2.247   1.051   1.848  0.5763 -0.4013  1.5904
 2609WAT     H2 8230   2.281   1.196   1.875 -0.3177 -0.2169  1.7702
 2610WAT      O 8231   5.590   4.927   2.009 -0.2740 -0.0426 -0.6464
 2610WAT     H1 8232   5.625   4.854   1.958  0.1702 -0.3757  0.1077
 2610WAT     H2 8233   5.634   4.920   2.094 -3.5903 -1.6949  1.1053
 2611WAT      O 8234   4.027   3.851   5.090  0.4554  0.2145  0.0701
 2611WAT     H1 8235   4.115   3.817   5.105  0.6855  0.5181 -0.5915
 2611WAT     H2 8236   4.039   3.923   5.029 -0.0598  1.3163  1.2399
 2612WAT      O 8237   3.732   4.593   5.957 -0.1047 -0.2558  0.1631
 2612WAT     H1 8238   3.816   4.633   5.982  0.4388 -0.5480 -1.0774
 2612WAT     H2 8239   3.668   4.635   6.014  0.7763  0.5728  0.5971
 2613WAT      O 8240   2.907   5.376   6.239  0.0731  0.1611  0.1078
 2613WAT     H1 8241   2.880   5.448   6.182  1.2482  1.0335  0.6303
 2613WAT     H2 8242   2.999   5.361   6.217 -0.1144 -1.0975  0.1062
 2614WAT      O 8243   1.200   5.686   0.892 -0.2005 -0.1310 -0.1190
 2614WAT     H1 8244   1.108   5.702   0.913  0.2980  1.0443  1.2838
 2614WAT     H2 8245   1.235   5.643   0.970  0.7318  0.5360 -0.1608
 2615WAT      O 8246   7.199   3.934   0.675 -0.5332  0.3006  0.2200
 2615WAT     H1 8247   7.173   4.003   0.736  0.4930  1.1475 -0.2716
 2615WAT     H2 8248   7.264   3.882   0.723 -2.5822 -1.4976  1.2557
 2616WAT      O 8249   4.382   3.657   6.182  0.2510  0.2451  0.3578
 2616WAT     H1 8250   4.305   3.697   6.222  0.4253  0.4432  0.4898
 2616WAT     H2 8251   4.382   3.567   6.216  1.2559  0.8428  2.0033
 2617WAT      O 8252   0.243   1.295   4.351  0.5651 -0.2305  0.0723
 2617WAT     H1 8253   0.176   1.358   4.378  0.8262 -0.3199  0.9404
 2617WAT     H2 8254   0.279   1.261   4.433 -0.6273 -2.6659 -0.3055
 2618WAT      O 8255   7.489   4.981   2.566  0.5332  0.3611 -0.0329
 2618WAT     H1 8256   7.527   5.053   2.617 -1.3310  1.6311 -0.3125
 2618WAT     H2 8257   7.413   4.953   2.618 -1.6268  1.9135 -2.0988
 2619WAT      O 8258   2.221   1.630   3.428 -0.5428 -0.6644 -0.3477
 2619WAT     H1 8259   2.226   1.583   3.511  1.9967  1.8128  1.0784
 2619WAT     H2 8260   2.277   1.706   3.440 -1.7142  0.9336 -3.6659
 2620WAT      O 8261   6.124   6.409   1.932 -0.1726  0.2906  0.5926
 2620WAT     H1 8262   6.194   6.446   1.985  0.9922 -1.1841  0.1437
 2620WAT     H2 8263   6.063   6.371   1.996  0.7975 -0.7408  0.9313
 2621WAT      O 8264   0.317   0.400   5.737 -0.3204  0.1037  0.0637
 2621WAT     H1 8265   0.269   0.318   5.730 -1.3036  0.5813  0.9638
 2621WAT     H2 8266   0.279   0.444   5.813 -1.2962  2.3591 -1.6154
 2622WAT      O 8267   0.449   6.876   3.025  0.1404 -0.1168  0.8343
 2622WAT     H1 8268   0.450   6.919   3.111 -0.1560 -0.0559  0.8086
 2622WAT     H2 8269   0.376   6.814   3.030 -1.7833  1.9243 -0.3537
 2623WAT      O 8270   1.036   4.062   3.963  0.3339 -0.1808 -0.1764
 2623WAT     H1 8271   1.083   4.070   4.046  0.3824  0.9072 -0.2892
 2623WAT     H2 8272   1.035   4.151   3.928  1.8581 -0.8971 -2.1967
 2624WAT      O 8273   4.115   4.238   1.884  0.2638  0.0008 -0.3274
 2624WAT     H1 8274   4.081   4.271   1.801  0.6199  1.0946 -0.0453
 2624WAT     H2 8275   4.043   4.251   1.946  0.1301 -0.4771 -0.3776
 2625WAT      O 8276   6.169   7.162   1.937 -0.3980 -0.4120  0.5557
 2625WAT     H1 8277   6.236   7.199   1.994 -0.5056  3.6516 -1.5435
 2625WAT     H2 8278   6.088   7.204   1.966 -0.7791  0.1321 -1.1906
 2626WAT      O 8279   3.367   6.169   6.206 -0.1910 -0.0723 -0.4242
 2626WAT     H1 8280   3.299   6.232   6.182  0.4969  1.7875  2.0653
 2626WAT     H2 8281   3.329   6.118   6.277 -0.0534 -1.1679 -1.1242
 2627WAT      O 8282   1.320   2.659   5.708  0.1860 -0.4642 -0.5070
 2627WAT     H1 8283   1.231   2.640   5.678 -0.6407  1.8234  0.2423
 2627WAT     H2 8284   1.342   2.742   5.665  1.6764 -0.6140 -0.0895
 2628WAT      O 8285   2.172   3.360   5.676  0.2683  0.5905 -0.1176
 2628WAT     H1 8286   2.232   3.286   5.671  0.5821  0.7821  0.6540
 2628WAT     H2 8287   2.181   3.393   5.766 -0.7218  0.8476 -0.0908
 2629WAT      O 8288   0.384   5.924   1.918  0.7278  0.5250  0.5360
 2629WAT     H1 8289   0.409   5.982   1.989 -1.5632 -0.3220  2.1172
 2629WAT     H2 8290   0.386   5.836   1.956 -0.4264  0.0357 -0.4527
 2630WAT      O 8291   2.129   1.046   2.079  0.0238 -0.0032 -0.1056
 2630WAT     H1 8292   2.189   1.022   2.151 -0.4482  1.2600  0.7433
 2630WAT     H2 8293   2.107   1.138   2.096 -1.6776 -0.2570 -0.7351
 2631WAT      O 8294   3.614   6.599   0.740  0.1367  0.0639 -0.5004
 2631WAT     H1 8295   3.565   6.572   0.817  0.2758  0.8789 -0.1158
 2631WAT     H2 8296   3.593   6.692   0.729  0.2766  0.0055 -1.3255
 2632WAT      O 8297   5.828   3.343   4.291  0.0405 -0.8686 -0.1104
 2632WAT     H1 8298   5.783   3.415   4.247  0.1910 -1.4189 -1.1937
 2632WAT     H2 8299   5.845   3.376   4.379  0.5920  0.6179 -0.7496
 2633WAT      O 8300   5.656   1.346   4.658  0.5478 -0.0633 -0.1213
 2633WAT     H1 8301   5.673   1.394   4.577  1.6120  0.8598  0.6190
 2633WAT     H2 8302   5.561   1.335   4.659  0.3254  1.4579 -0.6503
 2634WAT      O 8303   5.696   0.626   1.325 -0.8441 -0.4140  0.1963
 2634WAT     H1 8304   5.698   0.721   1.310  1.3687 -0.1023  1.9234
 2634WAT     H2 8305   5.617   0.612   1.378 -2.4464  0.0681 -1.9461
 2635WAT      O 8306   4.255   5.209   5.918 -0.3377 -0.6261  0.1849
 2635WAT     H1 8307   4.290   5.134   5.966 -2.8474 -1.4426  0.8617
 2635WAT     H2 8308   4.322   5.277   5.929  1.6442 -2.4765  0.1909
 2636WAT      O 8309   5.514   5.764   0.961  0.8658  0.7925 -0.2393
 2636WAT     H1 8310   5.551   5.715   0.888 -0.6901  0.0972 -0.5895
 2636WAT     H2 8311   5.568   5.844   0.966  1.2532  0.6689 -1.8703
 2637WAT      O 8312   1.882   6.763   4.325 -0.1392  0.1244 -0.1927
 2637WAT     H1 8313   1.830   6.812   4.390  0.4916 -0.7415  1.0062
 2637WAT     H2 8314   1.819   6.705   4.283 -0.3650 -0.0696  0.4054
 2638WAT      O 8315   1.760   4.719   5.899  0.3006  0.3226 -0.2397
 2638WAT     H1 8316   1.852   4.729   5.875  0.1148  1.1551 -0.6492
 2638WAT     H2 8317   1.743   4.792   5.959  0.2971 -0.7235  1.0708
 2639WAT      O 8318   3.402   0.725   2.864 -0.0714 -0.1925  0.1997
 2639WAT     H1 8319   3.419   0.735   2.771 -1.1793  0.2172  0.0344
 2639WAT     H2 8320   3.465   0.658   2.892 -0.7947 -1.4978 -1.1596
 2640WAT      O 8321   6.654   7.024   3.475  0.2010  0.2237 -0.4743
 2640WAT     H1 8322   6.701   6.991   3.552  1.3921 -0.6079 -1.5056
 2640WAT     H2 8323   6.708   7.097   3.444 -0.9434  1.3788  0.1792
 2641WAT      O 8324   4.386   1.558   4.871  0.3465  0.7108 -0.0453
 2641WAT     H1 8325   4.446   1.489   4.898 -0.0962 -0.2494 -1.4013
 2641WAT     H2 8326   4.441   1.634   4.856  0.8576  0.6496  1.3402
 2642WAT      O 8327   0.373   5.188   1.406  0.3604  0.6090  0.0095
 2642WAT     H1 8328   0.340   5.153   1.489 -0.2224  1.7354  0.2776
 2642WAT     H2 8329   0.461   5.153   1.398  0.6653  0.9799  1.4285
 2643WAT      O 8330   3.943   4.860   3.987 -0.1651  0.3869  0.4151
 2643WAT     H1 8331   3.861   4.908   3.976 -1.5128 -1.8498  0.1787
 2643WAT     H2 8332   3.933   4.815   4.071  0.4736 -0.5652 -0.0038
 2644WAT      O 8333   2.885   1.394   5.546  0.1616 -0.6060  0.1595
 2644WAT     H1 8334   2.917   1.398   5.456  1.6635 -1.4950  0.6051
 2644WAT     H2 8335   2.888   1.301   5.568 -1.3603 -0.5417  0.7458
 2645WAT      O 8336   1.861   1.352   0.520  0.3915 -0.2844  0.2703
 2645WAT     H1 8337   1.910   1.433   0.509  0.7795 -0.6471 -0.7388
 2645WAT     H2 8338   1.927   1.287   0.543  0.1661 -0.4556  0.4465
 2646WAT      O 8339   0.836   5.616   2.557 -0.4851 -0.1286 -0.4391
 2646WAT     H1 8340   0.920   5.573   2.574 -0.8817 -0.5039  0.6590
 2646WAT     H2 8341   0.856   5.709   2.562 -0.2784 -0.2106  0.7373
 2647WAT      O 8342   1.394   4.547   0.801 -0.0102 -0.2741 -0.1532
 2647WAT     H1 8343   1.314   4.586   0.835  0.0443 -0.0124 -0.3266
 2647WAT     H2 8344   1.459   4.563   0.870  0.2990  0.9529 -0.6958
 2648WAT      O 8345   4.800   4.886   0.972  0.1103  0.5373 -0.6429
 2648WAT     H1 8346   4.868   4.890   1.040 -0.3927  0.7972 -0.1486
 2648WAT     H2 8347   4.718   4.882   1.021 -0.1964 -0.6563 -1.2234
 2649WAT      O 8348   6.367   4.383   0.037  0.1258 -0.3977  0.4036
 2649WAT     H1 8349   6.421   4.454   0.070 -0.5207 -0.2124  1.1071
 2649WAT     H2 8350   6.314   4.356   0.113  0.3662 -1.6318  0.1591
 2650WAT      O 8351   6.643   6.069   2.394  0.3910  0.1395  0.6642
 2650WAT     H1 8352   6.692   6.127   2.336  1.4005 -1.5466 -0.2451
 2650WAT     H2 8353   6.708   6.010   2.430 -0.8275 -1.6173  0.1083
 2651WAT      O 8354   1.803   0.455   1.860  0.2158 -0.3725  0.0866
 2651WAT     H1 8355   1.730   0.513   1.837 -0.5808 -0.8469  1.2765
 2651WAT     H2 8356   1.880   0.497   1.823 -0.4899  0.8676 -0.0352
 2652WAT      O 8357   6.722   5.868   3.134  0.7368 -0.0464 -0.4013
 2652WAT     H1 8358   6.722   5.784   3.180 -0.5742  0.6470  0.9691
 2652WAT     H2 8359   6.790   5.919   3.177  0.6920  0.0068 -0.3930
 2653WAT      O 8360   3.327   1.658   2.655  0.1227 -0.3536 -0.2211
 2653WAT     H1 8361   3.306   1.736   2.708  0.5093  0.6443 -1.4777
 2653WAT     H2 8362   3.402   1.619   2.699  1.6782  1.5441 -0.9966
 2654WAT      O 8363   0.261   5.731   1.304 -0.2723  0.5388  0.5437
 2654WAT     H1 8364   0.329   5.665   1.292  0.1974  1.2207 -0.7462
 2654WAT     H2 8365   0.189   5.685   1.347  0.7746 -0.3263  1.4320
 2655WAT      O 8366   5.675   1.323   1.826  0.1574  0.9262 -0.4355
 2655WAT     H1 8367   5.580   1.318   1.813  0.1035 -3.5481 -0.0601
 2655WAT     H2 8368   5.686   1.366   1.910 -1.9116 -1.5754  1.2606
 2656WAT      O 8369   7.545   7.163   3.984  0.3582 -0.4570 -0.1291
 2656WAT     H1 8370   7.612   7.175   4.052  0.1646  1.1699 -0.1783
 2656WAT     H2 8371   7.476   7.112   4.027 -0.1383  1.2366  1.2181
 2657WAT      O 8372   6.523   5.655   3.422 -0.4040  0.6643 -0.0105
 2657WAT     H1 8373   6.529   5.628   3.513 -0.6894  0.6265 -0.0021
 2657WAT     H2 8374   6.459   5.726   3.422 -0.1540  0.8939 -0.1315
 2658WAT      O 8375   4.935   0.731   0.060 -0.3966 -0.3444  0.7760
 2658WAT     H1 8376   4.955   0.669   0.130  0.4103 -0.1902  0.6826
 2658WAT     H2 8377   5.004   0.796   0.064  1.4125 -1.8979 -2.0418
 2659WAT      O 8378   3.483   1.500   3.850 -0.2710  0.3764 -0.5618
 2659WAT     H1 8379   3.572   1.477   3.878 -0.2188  0.7155 -0.4405
 2659WAT     H2 8380   3.451   1.422   3.805 -0.4571 -0.2746  0.6647
 2660WAT      O 8381   0.875   1.529   0.731  0.0285  0.7424 -0.4728
 2660WAT     H1 8382   0.879   1.598   0.797  1.0561  0.8344 -0.6138
 2660WAT     H2 8383   0.838   1.454   0.777 -0.0422  1.0557 -0.0135
 2661WAT      O 8384   3.846   1.138   4.862 -0.2435  0.2516 -0.9957
 2661WAT     H1 8385   3.855   1.136   4.958 -1.1136 -1.7233 -0.9076
 2661WAT     H2 8386   3.787   1.211   4.846 -0.6631  0.1708  0.0560
 2662WAT      O 8387   1.337   3.066   2.010  0.2133  0.3183  0.0301
 2662WAT     H1 8388   1.313   3.121   2.085  1.2795  0.8873 -0.0313
 2662WAT     H2 8389   1.423   3.031   2.032  0.5662  0.5352 -0.9513
 2663WAT      O 8390   5.942   6.862   1.379  0.0231 -0.0184 -0.0170
 2663WAT     H1 8391   6.019   6.912   1.407  0.0183 -0.8949  1.7099
 2663WAT     H2 8392   5.976   6.799   1.315  0.5761  0.1886  0.0661
 2664WAT      O 8393   0.132   4.096   1.912  0.0967 -0.5131  0.3965
 2664WAT     H1 8394   0.145   4.011   1.954 -1.5490  0.1013  2.3131
 2664WAT     H2 8395   0.037   4.110   1.914  0.3617  1.6305  0.7099
 2665WAT      O 8396   4.251   2.206   5.200  0.4134 -0.2165 -0.7249
 2665WAT     H1 8397   4.344   2.185   5.211  0.2875 -0.8398 -0.8197
 2665WAT     H2 8398   4.207   2.151   5.265  0.2567  1.5354  0.7198
 2666WAT      O 8399   3.654   1.418   6.069 -0.5682 -0.0660 -0.3745
 2666WAT     H1 8400   3.627   1.502   6.106  1.2276  0.0579  0.7306
 2666WAT     H2 8401   3.745   1.408   6.095 -0.0822 -1.3494 -2.3445
 2667WAT      O 8402   1.868   1.627   0.714 -0.6897 -0.2106  0.7316
 2667WAT     H1 8403   1.936   1.678   0.670 -1.0184  1.3204  1.9381
 2667WAT     H2 8404   1.808   1.602   0.643  1.1454 -1.7596 -0.3932
 2668WAT      O 8405   4.237   6.031   4.675 -0.7831 -0.4085  0.5888
 2668WAT     H1 8406   4.185   6.092   4.727  1.9075  1.7491  1.0062
 2668WAT     H2 8407   4.237   5.949   4.725 -1.0766  0.5584  2.2161
 2669WAT      O 8408   3.874   2.126   1.778 -0.3811 -0.4457  0.4389
 2669WAT     H1 8409   3.905   2.205   1.734 -0.1689 -0.2084  1.0051
 2669WAT     H2 8410   3.907   2.134   1.868  0.2152 -1.4975  0.3356
 2670WAT      O 8411   0.097   4.535   5.230 -0.4343 -0.1193 -0.2380
 2670WAT     H1 8412   0.190   4.526   5.251 -0.5423 -2.7278 -0.6535
 2670WAT     H2 8413   0.052   4.515   5.312 -0.6911  1.8397  0.1615
 2671WAT      O 8414   2.442   2.843   2.754  0.1095 -0.1563 -0.7319
 2671WAT     H1 8415   2.532   2.848   2.785 -0.4925 -0.5982  1.1925
 2671WAT     H2 8416   2.449   2.855   2.659  2.0551  1.0417 -0.4845
 2672WAT      O 8417   1.396   6.554   4.394  0.5065  0.1187 -0.4641
 2672WAT     H1 8418   1.429   6.477   4.441 -0.9077 -0.1137  0.1665
 2672WAT     H2 8419   1.359   6.518   4.313 -0.0345  0.1426 -0.2304
 2673WAT      O 8420   1.212   0.233   3.349 -0.4349  0.1003 -0.7133
 2673WAT     H1 8421   1.287   0.286   3.377  0.2294 -0.5667 -1.1754
 2673WAT     H2 8422   1.239   0.197   3.264 -0.5731 -1.5193 -0.1084
 2674WAT      O 8423   1.733   5.812   5.301 -0.2305 -0.1888 -0.1837
 2674WAT     H1 8424   1.782   5.882   5.343  0.5778 -0.4306 -0.7005
 2674WAT     H2 8425   1.705   5.756   5.373  0.2907 -0.0742  0.1144
 2675WAT      O 8426   3.607   5.929   2.098 -0.1248 -0.2913  0.3921
 2675WAT     H1 8427   3.534   5.977   2.060 -0.1373  1.0157  2.0001
 2675WAT     H2 8428   3.640   5.985   2.168  1.2091 -1.6993  0.9538
 2676WAT      O 8429   3.171   4.506   4.498 -0.3886 -0.1477  0.0935
 2676WAT     H1 8430   3.236   4.436   4.495 -0.5876 -0.3286 -0.0534
 2676WAT     H2 8431   3.115   4.485   4.572 -1.3403 -0.9564 -0.8249
 2677WAT      O 8432   1.724   6.735   5.563 -0.1052  0.1276  0.0274
 2677WAT     H1 8433   1.789   6.762   5.498  1.0858 -1.9510  0.2717
 2677WAT     H2 8434   1.752   6.778   5.644  2.1056 -2.1063  0.5481
 2678WAT      O 8435   0.821   0.987   5.174  0.4839 -0.3852 -0.2753
 2678WAT     H1 8436   0.730   1.018   5.167  0.4500 -0.7338 -1.9127
 2678WAT     H2 8437   0.834   0.970   5.267 -1.7999 -2.1811 -0.1867
 2679WAT      O 8438   5.177   1.610   5.307  0.5103  0.0958  0.7835
 2679WAT     H1 8439   5.136   1.637   5.390  0.6062 -0.6750  1.0900
 2679WAT     H2 8440   5.118   1.643   5.240 -0.1227 -0.1767  1.1924
 2680WAT      O 8441   4.966   1.428   4.721  0.0003  0.4787 -0.1018
 2680WAT     H1 8442   5.058   1.401   4.715 -0.0101  0.4911 -0.3509
 2680WAT     H2 8443   4.968   1.522   4.700  0.0506  0.6948  0.8557
 2681WAT      O 8444   3.664   4.848   3.176  0.1931 -0.0267 -0.0776
 2681WAT     H1 8445   3.736   4.785   3.174  0.4979  0.3292 -0.5803
 2681WAT     H2 8446   3.585   4.794   3.183  0.5004 -0.4226  0.3950
 2682WAT      O 8447   3.885   0.686   6.127 -0.0164 -0.2652  0.2787
 2682WAT     H1 8448   3.962   0.679   6.183  0.5254  0.8307 -0.3035
 2682WAT     H2 8449   3.861   0.779   6.131 -1.3271 -0.5837  0.4637
 2683WAT      O 8450   6.259   4.058   4.955  0.4674  0.2204 -0.1016
 2683WAT     H1 8451   6.229   4.065   5.046 -3.7131  1.1356 -1.3169
 2683WAT     H2 8452   6.311   3.978   4.953 -0.1115 -0.3710  2.9124
 2684WAT      O 8453   4.673   5.162   3.067 -0.0133 -0.5087  0.0297
 2684WAT     H1 8454   4.759   5.119   3.068  0.2135 -0.1414 -1.4986
 2684WAT     H2 8455   4.621   5.109   3.006 -0.6224 -0.2450  0.3162
 2685WAT      O 8456   5.138   0.261   3.563 -0.4347 -0.2537 -0.3079
 2685WAT     H1 8457   5.126   0.191   3.628 -0.5563 -2.1211 -2.2460
 2685WAT     H2 8458   5.232   0.260   3.545 -0.2458  0.9391  0.5216
 2686WAT      O 8459   1.110   3.076   4.369  0.0521 -0.1411  0.2708
 2686WAT     H1 8460   1.125   3.156   4.418  2.6865 -0.2202 -0.2427
 2686WAT     H2 8461   1.092   3.009   4.435  0.3129  0.3891  0.8810
 2687WAT      O 8462   1.816   3.338   1.867  0.7985 -0.0008 -0.5264
 2687WAT     H1 8463   1.785   3.332   1.957  1.8695  0.8514 -0.0744
 2687WAT     H2 8464   1.851   3.427   1.860  0.0897  0.1981 -2.0006
 2688WAT      O 8465   4.949   2.512   1.228 -0.2643 -0.0760 -0.0782
 2688WAT     H1 8466   4.891   2.452   1.274 -0.4408 -0.1742 -0.4190
 2688WAT     H2 8467   4.981   2.571   1.295 -2.5604  1.4515 -0.1942
 2689WAT      O 8468   4.926   6.588   3.997  0.4525 -0.0585 -0.2433
 2689WAT     H1 8469   4.834   6.593   4.020  0.5760 -1.9214  0.8811
 2689WAT     H2 8470   4.928   6.593   3.901 -0.6377  1.6820 -0.1987
 2690WAT      O 8471   7.379   3.434   6.065  0.2560 -0.5234 -0.0524
 2690WAT     H1 8472   7.337   3.362   6.112  0.3538 -0.5156  0.0487
 2690WAT     H2 8473   7.313   3.464   6.002  0.6413 -1.5396 -0.9886
 2691WAT      O 8474   6.380   1.405   2.644 -0.1267 -0.3097 -0.3104
 2691WAT     H1 8475   6.342   1.319   2.624  1.3934 -1.4097  1.3193
 2691WAT     H2 8476   6.474   1.395   2.630  0.1358  0.9651  0.3271
 2692WAT      O 8477   5.413   3.483   0.065  0.2187  0.2803 -0.2641
 2692WAT     H1 8478   5.441   3.490   0.156 -0.9409  1.5568  0.0207
 2692WAT     H2 8479   5.357   3.405   0.063  0.1112  0.3419  0.1547
 2693WAT      O 8480   2.283   0.348   2.945 -0.0739 -0.2627 -0.6105
 2693WAT     H1 8481   2.316   0.262   2.968 -1.4195 -1.1644 -1.8958
 2693WAT     H2 8482   2.279   0.395   3.029 -0.9234 -2.0171  0.3812
 2694WAT      O 8483   5.402   1.265   1.785  0.0810 -0.7017  0.1656
 2694WAT     H1 8484   5.375   1.174   1.775 -0.9275 -0.4294  0.3062
 2694WAT     H2 8485   5.365   1.310   1.709  1.5625 -0.6100 -0.5274
 2695WAT      O 8486   3.539   1.116   5.247 -0.6407 -0.3404  0.0615
 2695WAT     H1 8487   3.629   1.134   5.274 -0.8250  0.8002 -0.0686
 2695WAT     H2 8488   3.532   1.154   5.159 -1.5432  0.4517  0.4661
 2696WAT      O 8489   6.800   1.824   6.230 -0.9423  0.2220 -0.2746
 2696WAT     H1 8490   6.848   1.760   6.178 -0.6409  0.3297 -0.1279
 2696WAT     H2 8491   6.810   1.795   6.321 -0.2917  0.8113 -0.1509
 2697WAT      O 8492   6.113   0.287   5.545  0.3394 -0.5472  0.4658
 2697WAT     H1 8493   6.035   0.244   5.511 -0.4124  2.1765 -1.6750
 2697WAT     H2 8494   6.082   0.339   5.618 -0.0558  0.9683 -0.7283
 2698WAT      O 8495   2.351   6.422   0.746  0.8230  0.2673 -0.0060
 2698WAT     H1 8496   2.311   6.336   0.735 -0.0679  0.9381 -2.9649
 2698WAT     H2 8497   2.445   6.404   0.751  0.6404 -0.8957 -0.4207
 2699WAT      O 8498   0.019   4.381   5.915  0.5005 -0.0994 -0.0303
 2699WAT     H1 8499   0.098   4.334   5.944  0.2811 -0.0065  0.7442
 2699WAT     H2 8500  -0.049   4.313   5.914  0.6066 -0.1948 -0.7702
 2700WAT      O 8501   7.095   6.268   2.207  0.0663  0.4390 -0.0628
 2700WAT     H1 8502   7.177   6.254   2.255 -0.0589 -0.3370 -0.0773
 2700WAT     H2 8503   7.101   6.210   2.132 -0.1723  0.9380 -0.4712
 2701WAT      O 8504   6.892   6.595   3.904  0.4930  0.1717 -0.4666
 2701WAT     H1 8505   6.875   6.526   3.968  1.3112  0.9822  0.6780
 2701WAT     H2 8506   6.864   6.558   3.820  0.0316 -1.1785  0.2528
 2702WAT      O 8507   5.561   5.214   5.984 -0.1931  0.3742 -0.0630
 2702WAT     H1 8508   5.582   5.270   5.909  1.1925  0.8126  0.6016
 2702WAT     H2 8509   5.561   5.125   5.949  0.0730  0.6049 -0.6629
 2703WAT      O 8510   6.947   1.174   1.378  0.2540  0.3252  0.0489
 2703WAT     H1 8511   6.993   1.196   1.297  0.3103 -0.2560 -0.0819
 2703WAT     H2 8512   7.003   1.110   1.421  0.7846  1.4511  1.1108
 2704WAT      O 8513   5.126   3.404   5.202  0.3426 -0.1679 -0.4044
 2704WAT     H1 8514   5.217   3.377   5.216  0.2129 -1.8589 -2.3717
 2704WAT     H2 8515   5.074   3.340   5.250  0.1245  0.7244  0.6144
 2705WAT      O 8516   1.191   0.713   0.155  0.3670  0.1999 -0.0788
 2705WAT     H1 8517   1.152   0.778   0.214  1.0148 -0.3851  1.0207
 2705WAT     H2 8518   1.116   0.662   0.123 -0.0480  0.8812 -0.2197
 2706WAT      O 8519   5.212   3.670   3.555  0.4355  0.0387  0.4068
 2706WAT     H1 8520   5.265   3.715   3.621  0.9907  0.6760 -0.4431
 2706WAT     H2 8521   5.122   3.676   3.587  0.6716  0.5527  0.9831
 2707WAT      O 8522   0.252   4.173   0.192 -0.2556 -0.3893  0.3293
 2707WAT     H1 8523   0.233   4.263   0.167 -2.8439 -1.2110 -1.0293
 2707WAT     H2 8524   0.313   4.142   0.125 -0.2949 -0.0120  0.1172
 2708WAT      O 8525   5.287   6.057   1.219 -0.3238 -0.3529 -0.5592
 2708WAT     H1 8526   5.226   6.024   1.153  0.4233 -1.5372 -0.6947
 2708WAT     H2 8527   5.364   6.086   1.169 -0.2047 -0.2065 -0.2925
 2709WAT      O 8528   1.849   4.469   4.870 -0.1025  0.2171 -0.3731
 2709WAT     H1 8529   1.814   4.382   4.891 -2.4992  1.4527  1.1485
 2709WAT     H2 8530   1.914   4.452   4.802  0.1821 -2.8576  0.4914
 2710WAT      O 8531   4.586   0.163   5.463 -0.5996 -0.5427 -0.2679
 2710WAT     H1 8532   4.600   0.178   5.556  0.2876  2.1104 -0.7275
 2710WAT     H2 8533   4.491   0.164   5.452 -0.6964  1.2135  0.4005
 2711WAT      O 8534   7.083   4.176   5.073  0.2220  0.2571 -0.7174
 2711WAT     H1 8535   7.118   4.103   5.123  0.6017 -0.5102 -2.0460
 2711WAT     H2 8536   7.024   4.221   5.133  0.0840 -1.0531  0.1579
 2712WAT      O 8537   2.554   4.382   5.294 -0.0275  0.1292 -0.2005
 2712WAT     H1 8538   2.612   4.381   5.370 -0.2483 -0.6866 -0.0284
 2712WAT     H2 8539   2.476   4.336   5.323  0.0624 -0.5977 -1.0462
 2713WAT      O 8540   2.198   5.872   3.194 -0.1599 -0.3005  0.4844
 2713WAT     H1 8541   2.224   5.794   3.244 -1.1960 -0.9828  0.0081
 2713WAT     H2 8542   2.238   5.860   3.108  2.9233  1.6326  1.5269
 2714WAT      O 8543   6.478   3.695   6.177  0.0110  0.2030 -0.5484
 2714WAT     H1 8544   6.392   3.673   6.141  0.3009 -3.3480  0.5228
 2714WAT     H2 8545   6.461   3.716   6.269  0.3199 -1.8370  0.0257
 2715WAT      O 8546   5.528   3.105   1.168 -0.5885 -0.5054  0.0547
 2715WAT     H1 8547   5.492   3.022   1.199  0.4273 -1.0655 -0.2111
 2715WAT     H2 8548   5.611   3.081   1.127 -0.4525  0.6021 -0.3557
 2716WAT      O 8549   4.088   5.380   1.409  0.1349  0.0723 -0.1061
 2716WAT     H1 8550   4.050   5.428   1.483  0.8297 -1.9420  1.6468
 2716WAT     H2 8551   4.017   5.324   1.377 -0.6497  2.0325 -2.0992
 2717WAT      O 8552   2.068   1.544   3.221  0.4394  0.3023  0.3802
 2717WAT     H1 8553   1.989   1.511   3.265  0.3881  0.9310  0.7803
 2717WAT     H2 8554   2.128   1.564   3.293 -0.3022  3.0688  0.3548
 2718WAT      O 8555   6.936   2.067   2.478 -0.0664 -0.0536  0.6541
 2718WAT     H1 8556   6.880   2.053   2.554  0.7496  0.7749  1.4457
 2718WAT     H2 8557   6.915   2.156   2.448 -2.7591 -1.4570 -2.2005
 2719WAT      O 8558   4.653   5.885   4.952  0.0805 -0.3053 -0.3216
 2719WAT     H1 8559   4.732   5.842   4.918  0.2729 -0.4223  0.2562
 2719WAT     H2 8560   4.675   5.906   5.043 -0.6826 -0.6430 -0.0593
 2720WAT      O 8561   6.551   0.590   4.615  0.7639  0.2474 -0.0598
 2720WAT     H1 8562   6.534   0.533   4.690  1.1879 -0.6277 -0.6019
 2720WAT     H2 8563   6.625   0.644   4.643  0.3779  0.5175  0.4520
 2721WAT      O 8564   1.704   5.584   4.626  0.6659 -0.7796  0.1963
 2721WAT     H1 8565   1.788   5.631   4.627 -0.3009  1.0233  1.2024
 2721WAT     H2 8566   1.692   5.554   4.716  0.5384 -1.6751 -0.1033
 2722WAT      O 8567   1.302   2.020   5.727 -0.6357  0.1073  0.1121
 2722WAT     H1 8568   1.298   1.950   5.792 -1.4818 -0.8179 -0.8986
 2722WAT     H2 8569   1.214   2.057   5.725 -0.0336  1.6895  1.1167
 2723WAT      O 8570   0.268   5.968   4.931  0.0093 -0.3104 -0.3223
 2723WAT     H1 8571   0.179   5.934   4.927  0.2689 -0.8958 -1.8294
 2723WAT     H2 8572   0.310   5.920   5.002  0.1321 -2.6073 -1.8635
 2724WAT      O 8573   6.180   2.815   3.954 -0.0998  0.2909  0.0801
 2724WAT     H1 8574   6.197   2.815   4.048  1.1597  0.4145 -0.1276
 2724WAT     H2 8575   6.219   2.897   3.922  0.7110 -0.3913 -0.7394
 2725WAT      O 8576   3.532   2.026   5.279 -0.3067  0.3881 -0.5252
 2725WAT     H1 8577   3.450   1.981   5.301 -0.2746  0.3195 -0.5441
 2725WAT     H2 8578   3.540   2.094   5.345 -0.3621  0.3731 -0.5028
 2726WAT      O 8579   4.435   6.831   1.850  0.2844 -0.5640 -0.0874
 2726WAT     H1 8580   4.346   6.851   1.820  0.7372  2.5084  0.2447
 2726WAT     H2 8581   4.422   6.797   1.939 -0.5992 -1.5211 -0.5553
 2727WAT      O 8582   2.039   1.457   4.852 -0.2848  0.0803  0.2149
 2727WAT     H1 8583   1.993   1.373   4.845  1.5207 -1.0809  1.4371
 2727WAT     H2 8584   2.004   1.497   4.932  0.6332 -0.7094  1.0329
 2728WAT      O 8585   4.219   4.902   2.035 -0.0506  0.2037  0.4054
 2728WAT     H1 8586   4.265   4.979   2.002  0.3645 -0.0589  0.3623
 2728WAT     H2 8587   4.244   4.896   2.128  0.9365 -0.5950  0.1116
 2729WAT      O 8588   6.524   4.479   1.904  0.3940  0.5897 -0.0522
 2729WAT     H1 8589   6.516   4.515   1.992 -2.8192  1.2200 -0.4907
 2729WAT     H2 8590   6.536   4.555   1.848  0.3461  0.3590 -0.3767
 2730WAT      O 8591   0.773   6.046   4.571  0.2641 -0.1846  0.3146
 2730WAT     H1 8592   0.803   5.955   4.571 -0.3139 -0.3836 -0.8019
 2730WAT     H2 8593   0.816   6.084   4.648  0.9171 -1.2597  0.5146
 2731WAT      O 8594   5.631   5.465   1.460 -0.3659  1.0049  0.3370
 2731WAT     H1 8595   5.562   5.528   1.439 -0.2902  0.8445 -0.4141
 2731WAT     H2 8596   5.656   5.486   1.549 -1.2089  1.2380  0.5313
 2732WAT      O 8597   3.958   1.509   3.722  0.3306 -0.1223  0.0070
 2732WAT     H1 8598   3.895   1.564   3.767  0.7334 -0.5569  1.1357
 2732WAT     H2 8599   4.010   1.469   3.792  0.2330 -1.7146 -0.7828
 2733WAT      O 8600   0.473   2.126   0.721  0.2592 -0.2017 -0.3964
 2733WAT     H1 8601   0.541   2.093   0.780  0.6180 -2.7771 -2.0648
 2733WAT     H2 8602   0.415   2.051   0.707 -0.6270  0.7440 -2.1617
 2734WAT      O 8603   4.809   5.440   3.433  0.3800  0.4857 -0.2100
 2734WAT     H1 8604   4.846   5.411   3.517  2.6263  1.0984 -0.9095
 2734WAT     H2 8605   4.754   5.368   3.404  1.9089 -0.9898  0.4334
 2735WAT      O 8606   4.632   3.674   2.971 -0.1584 -0.0162  0.3583
 2735WAT     H1 8607   4.658   3.637   3.056 -0.0090  0.5473  0.5620
 2735WAT     H2 8608   4.657   3.766   2.977 -0.2866  0.0576 -0.2448
 2736WAT      O 8609   1.568   0.240   1.835 -0.6429 -0.4084 -0.2600
 2736WAT     H1 8610   1.644   0.293   1.856 -0.0184 -1.7584  0.9697
 2736WAT     H2 8611   1.494   0.287   1.875  0.0641 -1.0785  1.9501
 2737WAT      O 8612   7.371   1.075   3.877  0.4481 -1.1294  0.6037
 2737WAT     H1 8613   7.384   1.110   3.966  1.3214 -0.2575  0.1547
 2737WAT     H2 8614   7.460   1.062   3.844  0.1287 -1.5882 -0.0867
 2738WAT      O 8615   6.872   6.497   0.415 -0.5916  0.3197 -0.0201
 2738WAT     H1 8616   6.908   6.582   0.390  1.5196 -0.6416 -0.4270
 2738WAT     H2 8617   6.875   6.444   0.335 -0.1296 -0.6934  0.6424
 2739WAT      O 8618   6.388   3.087   2.734 -0.5728  0.1193  0.2989
 2739WAT     H1 8619   6.321   3.020   2.742 -3.5156  2.3866 -2.4567
 2739WAT     H2 8620   6.374   3.144   2.810  0.1747 -0.9164  1.2325
 2740WAT      O 8621   6.540   1.985   0.888  0.4605  0.6451 -0.2464
 2740WAT     H1 8622   6.462   2.037   0.908  0.3338  0.1539  0.5985
 2740WAT     H2 8623   6.512   1.894   0.902  0.7195  0.3383 -1.5630
 2741WAT      O 8624   7.596   2.410   0.625 -0.9385 -0.0186  0.5318
 2741WAT     H1 8625   7.576   2.316   0.621  1.9613 -0.8014  1.6368
 2741WAT     H2 8626   7.587   2.433   0.717  1.5751 -0.1048  0.8552
 2742WAT      O 8627   1.343   0.228   5.305  0.7819 -0.0065  1.0300
 2742WAT     H1 8628   1.391   0.273   5.236 -0.6658 -0.2179 -0.1806
 2742WAT     H2 8629   1.370   0.136   5.298  0.8936  0.0326  0.9612
 2743WAT      O 8630   1.010   2.660   1.982 -0.3974  0.1180  0.7540
 2743WAT     H1 8631   0.955   2.739   1.978 -0.3970  0.0783 -0.1827
 2743WAT     H2 8632   1.098   2.693   2.000  0.0368  0.5699 -1.8153
 2744WAT      O 8633   0.605   2.882   4.805  0.8626  0.2451 -0.6389
 2744WAT     H1 8634   0.577   2.833   4.882 -0.1853  0.0301 -1.1389
 2744WAT     H2 8635   0.603   2.974   4.833  1.0570  0.1261 -0.2361
 2745WAT      O 8636   3.722   6.902   1.628  0.8346  0.0652  0.0083
 2745WAT     H1 8637   3.684   6.909   1.716  0.6823  0.8945 -0.1094
 2745WAT     H2 8638   3.802   6.955   1.632  1.4697 -0.8811 -0.0221
 2746WAT      O 8639   3.244   1.142   5.094  0.1837 -0.1620 -0.0290
 2746WAT     H1 8640   3.325   1.162   5.047  0.6432 -2.2803 -0.2446
 2746WAT     H2 8641   3.231   1.217   5.152  2.1641  0.3582 -0.1850
 2747WAT      O 8642   5.302   3.804   5.732  0.1401  0.4509  0.2452
 2747WAT     H1 8643   5.325   3.744   5.802  0.5785 -1.3219 -1.3602
 2747WAT     H2 8644   5.207   3.796   5.724  0.3283 -1.0549 -0.8076
 2748WAT      O 8645   0.997   3.281   1.487 -0.1968 -0.1941  0.0620
 2748WAT     H1 8646   0.981   3.314   1.575  1.9226  0.0235  0.4371
 2748WAT     H2 8647   0.971   3.352   1.429 -2.2700 -0.6009  0.4420
 2749WAT      O 8648   5.914   6.538   3.924  0.5873 -0.3758  0.7039
 2749WAT     H1 8649   5.962   6.533   4.006  0.5779 -0.3008  0.7135
 2749WAT     H2 8650   5.931   6.626   3.891 -0.6852  0.1486  1.3973
 2750WAT      O 8651   4.343   3.758   0.837 -0.5165  0.1762 -0.4750
 2750WAT     H1 8652   4.431   3.790   0.814 -0.0591  0.7063  1.7945
 2750WAT     H2 8653   4.359   3.677   0.886 -1.2290  0.6117  0.5146
 2751WAT      O 8654   4.089   6.946   0.088 -0.3887  0.7388  0.6651
 2751WAT     H1 8655   4.080   7.013   0.155  0.8616  0.5082  1.0889
 2751WAT     H2 8656   4.178   6.911   0.100 -0.7418 -0.4621 -0.0274
 2752WAT      O 8657   7.085   0.347   5.911  0.5715  0.0301 -0.3739
 2752WAT     H1 8658   7.059   0.412   5.845  1.2335 -0.0173 -0.6852
 2752WAT     H2 8659   7.127   0.398   5.980  1.6171 -0.1188 -0.8878
 2753WAT      O 8660   0.548   6.892   2.025  0.1545  0.1085  0.2609
 2753WAT     H1 8661   0.475   6.953   2.014 -0.0133  0.0339  0.9008
 2753WAT     H2 8662   0.613   6.941   2.076  0.5653  0.1857 -0.3360
 2754WAT      O 8663   7.384   1.720   3.677  0.0438  0.1264 -0.5003
 2754WAT     H1 8664   7.362   1.807   3.709  2.0330  0.2940  0.6039
 2754WAT     H2 8665   7.459   1.733   3.619 -0.8676 -0.6634 -1.9106
 2755WAT      O 8666   1.141   6.507   1.605  0.5376  0.2259  0.4132
 2755WAT     H1 8667   1.231   6.522   1.577  0.2317  0.4571 -0.4822
 2755WAT     H2 8668   1.145   6.506   1.701  1.2342  1.8280  0.4318
 2756WAT      O 8669   5.695   1.345   1.302  0.0827 -0.2816 -0.0803
 2756WAT     H1 8670   5.744   1.268   1.273  1.4557 -0.4323  2.3501
 2756WAT     H2 8671   5.719   1.355   1.394 -2.3674  1.3314  0.4712
 2757WAT      O 8672   5.372   6.140   5.540 -0.3258  0.2858  0.6919
 2757WAT     H1 8673   5.459   6.154   5.575  0.5914  0.5438 -1.5093
 2757WAT     H2 8674   5.323   6.218   5.564  0.4304  0.7028  0.9024
 2758WAT      O 8675   0.615   1.273   4.680  0.0920 -0.0061 -0.1325
 2758WAT     H1 8676   0.654   1.304   4.762  1.1209  0.1028 -0.6502
 2758WAT     H2 8677   0.587   1.183   4.699 -1.0218  0.5022  0.7589
 2759WAT      O 8678   3.022   5.295   4.724 -0.1756 -0.1879 -0.2619
 2759WAT     H1 8679   2.932   5.290   4.691  0.4876 -0.9777 -2.1219
 2759WAT     H2 8680   3.033   5.216   4.777 -0.8652  0.4390  0.8570
 2760WAT      O 8681   7.422   0.637   0.234 -0.3637 -0.5068 -0.1052
 2760WAT     H1 8682   7.426   0.541   0.236  0.5442 -0.5070 -1.1328
 2760WAT     H2 8683   7.510   0.665   0.256 -0.3373  0.0716 -0.9128
 2761WAT      O 8684   1.279   5.055   5.524  0.1671 -0.6702 -0.3012
 2761WAT     H1 8685   1.297   5.099   5.607  0.6928 -0.6463 -0.4243
 2761WAT     H2 8686   1.184   5.043   5.523  0.2158 -1.2112  0.5727
 2762WAT      O 8687   3.596   6.960   6.071  0.0250  0.3906 -0.0376
 2762WAT     H1 8688   3.564   7.050   6.079  2.7281  1.4632 -0.1799
 2762WAT     H2 8689   3.657   6.950   6.143 -0.5114 -1.5146  0.2089
 2763WAT      O 8690   1.797   4.484   1.496 -0.4066  0.2447  0.1517
 2763WAT     H1 8691   1.844   4.556   1.538 -0.2444  0.4213 -0.3266
 2763WAT     H2 8692   1.767   4.430   1.569 -0.2365  0.6120  0.5019
 2764WAT      O 8693   0.656   2.888   3.673 -0.2131 -0.1665  0.2192
 2764WAT     H1 8694   0.674   2.822   3.605 -0.1119 -0.3171  0.3909
 2764WAT     H2 8695   0.727   2.876   3.737  1.2660  1.7181 -0.9352
 2765WAT      O 8696   7.388   6.694   5.565  0.4093  0.0311 -0.4688
 2765WAT     H1 8697   7.325   6.665   5.499  0.3362 -0.0484 -0.3635
 2765WAT     H2 8698   7.382   6.789   5.564  2.4122  0.2278 -2.5823
 2766WAT      O 8699   5.722   4.289   2.216  0.2904 -0.5141 -0.1051
 2766WAT     H1 8700   5.648   4.231   2.233 -1.3710  1.3602 -0.6828
 2766WAT     H2 8701   5.747   4.323   2.302  0.4220 -1.0438  0.0717
 2767WAT      O 8702   7.330   6.709   0.188  0.1031 -0.1178  0.5278
 2767WAT     H1 8703   7.409   6.671   0.225 -1.4676 -0.9536  3.2804
 2767WAT     H2 8704   7.322   6.794   0.230 -0.0673  0.3341 -0.3786
 2768WAT      O 8705   7.493   1.123   5.438  0.2321 -0.0369  0.2649
 2768WAT     H1 8706   7.543   1.170   5.370 -0.3824  0.4960  0.1728
 2768WAT     H2 8707   7.473   1.190   5.503 -0.3509 -0.2561  0.3097
 2769WAT      O 8708   4.295   3.899   0.511  0.3699 -0.0799 -0.0640
 2769WAT     H1 8709   4.247   3.859   0.584  2.4298 -0.7673  0.9697
 2769WAT     H2 8710   4.251   3.983   0.497 -0.3337 -0.1040  1.6869
 2770WAT      O 8711   4.888   6.160   4.227  0.2100 -0.0502 -0.1544
 2770WAT     H1 8712   4.836   6.143   4.148 -0.2556  3.1914 -0.6736
 2770WAT     H2 8713   4.823   6.169   4.297  0.0664  2.4192 -0.5090
 2771WAT      O 8714   1.676   3.409   5.270  0.4162 -0.1369  0.0162
 2771WAT     H1 8715   1.700   3.392   5.361  1.4710  1.0571 -0.0060
 2771WAT     H2 8716   1.580   3.407   5.269  0.3912  0.0114  1.1870
 2772WAT      O 8717   3.075   6.096   4.585 -0.4382  0.4456 -0.5890
 2772WAT     H1 8718   3.087   6.183   4.547 -1.1585  0.3414 -1.0760
 2772WAT     H2 8719   3.089   6.109   4.679  0.8871  0.7967 -0.8248
 2773WAT      O 8720   6.622   3.763   5.264 -0.3638 -0.3072  0.2469
 2773WAT     H1 8721   6.576   3.688   5.303 -0.0468 -0.1869  0.8719
 2773WAT     H2 8722   6.555   3.831   5.259 -0.7614 -0.7587 -0.7188
 2774WAT      O 8723   0.214   2.692   6.141  0.2440 -0.5901 -0.4116
 2774WAT     H1 8724   0.260   2.635   6.203  0.7767  0.3767  0.1153
 2774WAT     H2 8725   0.134   2.644   6.119  0.2234 -1.1306  0.7381
 2775WAT      O 8726   3.111   2.507   2.205  0.0028  0.1106  0.3930
 2775WAT     H1 8727   3.089   2.414   2.195  0.3025  0.1602 -1.0169
 2775WAT     H2 8728   3.099   2.543   2.117  2.0627  0.9166  0.3951
 2776WAT      O 8729   5.830   5.402   3.925 -0.0477 -0.5140 -0.2609
 2776WAT     H1 8730   5.917   5.402   3.885 -0.4360  1.1334 -1.2234
 2776WAT     H2 8731   5.846   5.431   4.015  0.4260 -0.4823 -0.3516
 2777WAT      O 8732   0.796   2.931   3.900  0.1235 -0.4240  0.0995
 2777WAT     H1 8733   0.750   2.990   3.961  1.7516  2.1392 -1.0040
 2777WAT     H2 8734   0.887   2.958   3.904  0.5578 -1.3045 -2.2495
 2778WAT      O 8735   4.614   1.680   4.754  0.9303 -0.3582 -0.5201
 2778WAT     H1 8736   4.708   1.694   4.766  0.5438  0.7572  2.0007
 2778WAT     H2 8737   4.598   1.704   4.663  2.6002  2.8948 -0.1247
 2779WAT      O 8738   7.120   4.075   0.945  0.0177  0.2656 -0.5048
 2779WAT     H1 8739   7.055   4.115   1.004 -1.5434  1.5264 -2.8930
 2779WAT     H2 8740   7.167   4.150   0.907  0.6312 -0.4641 -1.2114
 2780WAT      O 8741   5.879   7.062   2.480  0.4434 -0.1615  0.3071
 2780WAT     H1 8742   5.818   7.051   2.553 -0.5676 -0.6983 -0.5952
 2780WAT     H2 8743   5.836   7.125   2.422  0.1021 -1.5616 -1.0029
 2781WAT      O 8744   3.148   6.846   3.102 -0.1202 -0.1635 -0.1842
 2781WAT     H1 8745   3.131   6.938   3.123  0.5577  0.4306 -2.0730
 2781WAT     H2 8746   3.124   6.838   3.010 -2.8478 -2.6025  0.5910
 2782WAT      O 8747   3.152   1.015   1.239  0.3308  0.0893 -0.0333
 2782WAT     H1 8748   3.181   0.925   1.251 -1.0714 -0.3693  0.1889
 2782WAT     H2 8749   3.207   1.066   1.297  0.3874 -0.7761  0.6999
 2783WAT      O 8750   6.671   2.690   5.666 -0.2881  0.1401 -0.1532
 2783WAT     H1 8751   6.594   2.732   5.705 -0.4584 -0.4756  0.1817
 2783WAT     H2 8752   6.739   2.757   5.670 -0.6559  0.5101  0.0331
 2784WAT      O 8753   6.103   4.178   4.719 -0.2514 -0.4237 -0.0021
 2784WAT     H1 8754   6.146   4.128   4.788 -1.4032  0.8740  1.7431
 2784WAT     H2 8755   6.169   4.241   4.690  0.0071 -0.4828  0.4578
 2785WAT      O 8756   4.453   0.805   4.482 -0.1845 -0.2652 -0.4181
 2785WAT     H1 8757   4.546   0.827   4.473 -0.2143  0.5370  0.9872
 2785WAT     H2 8758   4.439   0.735   4.418  1.9873 -2.2005  1.0496
 2786WAT      O 8759   2.765   2.878   3.759  0.3722  0.3889 -0.6655
 2786WAT     H1 8760   2.830   2.933   3.802  2.3554 -2.1580 -0.1325
 2786WAT     H2 8761   2.697   2.865   3.825 -0.0129  1.9614 -0.7316
 2787WAT      O 8762   2.916   6.830   4.470 -0.5499  0.2207 -0.1689
 2787WAT     H1 8763   3.001   6.829   4.426  0.1396  2.8065  0.8691
 2787WAT     H2 8764   2.929   6.888   4.545 -2.3026 -2.0757  2.1123
 2788WAT      O 8765   4.264   1.072   6.187 -0.7267 -0.1136  0.0343
 2788WAT     H1 8766   4.323   1.016   6.238 -0.3382 -0.6962 -1.0189
 2788WAT     H2 8767   4.231   1.136   6.250 -0.3405 -0.8706  1.0284
 2789WAT      O 8768   6.633   4.097   4.475  0.0394 -0.1699  0.1909
 2789WAT     H1 8769   6.688   4.020   4.464  1.5461  0.8574  0.2041
 2789WAT     H2 8770   6.680   4.150   4.540 -0.8970  0.8075  0.0913
 2790WAT      O 8771   6.380   3.115   4.408 -0.4636 -0.3015  0.1610
 2790WAT     H1 8772   6.368   3.061   4.486  2.6393  1.2389  1.8874
 2790WAT     H2 8773   6.319   3.188   4.419 -2.7776 -1.9385 -0.8911
 2791WAT      O 8774   7.024   4.523   2.163 -0.5392  0.2229  0.3589
 2791WAT     H1 8775   7.019   4.613   2.196  0.2292  0.1170  0.7996
 2791WAT     H2 8776   7.063   4.474   2.235  1.3933  0.0120 -0.7632
 2792WAT      O 8777   6.564   3.402   5.240 -0.7196  0.1003  0.0699
 2792WAT     H1 8778   6.523   3.318   5.261  0.3044 -0.6508 -0.8212
 2792WAT     H2 8779   6.513   3.466   5.288 -2.8877 -0.7862 -0.9105
 2793WAT      O 8780   6.720   0.013   3.251 -0.1872  0.5900 -0.8105
 2793WAT     H1 8781   6.658   0.086   3.250  0.5403  1.3084  1.2174
 2793WAT     H2 8782   6.692  -0.042   3.324 -0.0037 -0.5409 -1.5651
 2794WAT      O 8783   2.964   0.389   1.993 -0.0099  0.3068 -0.2745
 2794WAT     H1 8784   3.032   0.456   1.982 -0.1308  0.1509 -2.4577
 2794WAT     H2 8785   2.901   0.428   2.053  0.5004  1.6847 -0.5964
 2795WAT      O 8786   7.092   0.047   5.861 -0.0326  0.1237  0.0708
 2795WAT     H1 8787   7.077   0.141   5.869  0.6151  0.0877  2.4447
 2795WAT     H2 8788   7.173   0.031   5.909 -1.1586 -1.8996  1.4256
 2796WAT      O 8789   7.397   4.572   2.178 -0.5767 -0.1942  0.1728
 2796WAT     H1 8790   7.345   4.524   2.114 -0.8671  1.0882 -0.5922
 2796WAT     H2 8791   7.344   4.570   2.258 -1.7318  0.8641 -0.5201
 2797WAT      O 8792   6.632   4.213   1.869 -0.0230 -0.2346 -0.3858
 2797WAT     H1 8793   6.659   4.222   1.778 -1.0439 -0.3087 -0.7048
 2797WAT     H2 8794   6.599   4.299   1.894  0.4555 -0.1524 -0.0025
 2798WAT      O 8795   3.133   3.338   4.568  0.1246 -0.6255  0.2300
 2798WAT     H1 8796   3.057   3.338   4.625  0.2066  2.5718  0.5630
 2798WAT     H2 8797   3.204   3.302   4.621 -0.6966 -1.6714  0.6306
 2799WAT      O 8798   3.299   2.165   5.093  0.4520  0.5700  0.0620
 2799WAT     H1 8799   3.375   2.193   5.143 -0.8589  0.6017  2.1689
 2799WAT     H2 8800   3.269   2.085   5.137  0.2622 -0.4413 -1.8046
 2800WAT      O 8801   3.997   0.928   3.869  0.3280  0.5758  0.7015
 2800WAT     H1 8802   4.042   0.873   3.933  0.9698  1.0368  0.6645
 2800WAT     H2 8803   3.913   0.950   3.910  0.8112  1.0350  1.4797
 2801WAT      O 8804   4.748   6.228   1.520  0.5987  0.2053  0.1912
 2801WAT     H1 8805   4.710   6.208   1.606 -0.2836  1.4549  0.1104
 2801WAT     H2 8806   4.825   6.281   1.540  0.0712  0.9835  0.2081
 2802WAT      O 8807   6.716   5.944   5.146  0.2356 -0.3858 -0.1622
 2802WAT     H1 8808   6.670   5.873   5.190  1.5107 -1.6771 -0.8486
 2802WAT     H2 8809   6.755   5.995   5.217  0.8066 -1.4228  0.2783
 2803WAT      O 8810   3.276   1.079   2.015  0.4531  0.5249 -0.3962
 2803WAT     H1 8811   3.331   1.085   1.937 -0.5299  2.0352 -1.0368
 2803WAT     H2 8812   3.322   1.131   2.081  1.6530 -1.3557  0.3115
 2804WAT      O 8813   6.457   5.151   4.920  0.3021  0.1096 -0.0476
 2804WAT     H1 8814   6.388   5.107   4.870  0.9819 -0.8722 -0.1287
 2804WAT     H2 8815   6.498   5.082   4.971  0.4548  0.8897  0.9279
 2805WAT      O 8816   0.874   2.742   1.559 -0.4287 -0.3298  0.0403
 2805WAT     H1 8817   0.859   2.697   1.476 -3.6846 -0.4094  0.5503
 2805WAT     H2 8818   0.855   2.834   1.540 -0.7533 -0.2801  0.5906
 2806WAT      O 8819   0.893   0.340   4.375  0.5134 -0.5961  0.3279
 2806WAT     H1 8820   0.869   0.322   4.466  1.0389  1.0893  0.8314
 2806WAT     H2 8821   0.814   0.378   4.336  1.0538  1.1495  0.8512
 2807WAT      O 8822   0.151   4.858   1.314  0.1500  0.3849  0.1750
 2807WAT     H1 8823   0.136   4.822   1.402 -1.5426  0.1445 -0.1785
 2807WAT     H2 8824   0.073   4.834   1.265  0.1154  2.3014 -0.8198
 2808WAT      O 8825   1.179   4.541   2.402 -0.0379  0.9890 -0.5112
 2808WAT     H1 8826   1.199   4.448   2.395  2.2690  1.5421 -2.6828
 2808WAT     H2 8827   1.252   4.577   2.452 -1.7767  1.4853  1.8510
 2809WAT      O 8828   4.430   6.197   5.547 -0.1352  0.2441 -0.9869
 2809WAT     H1 8829   4.506   6.255   5.552  0.3705 -0.4878  0.2561
 2809WAT     H2 8830   4.355   6.256   5.556  0.3754  0.7155  0.4922
 2810WAT      O 8831   1.926   1.922   0.230 -0.2705  0.3700  0.0788
 2810WAT     H1 8832   1.844   1.955   0.194  0.5109  0.3431 -1.8674
 2810WAT     H2 8833   1.989   1.992   0.214  0.2469  0.1270  0.9529
 2811WAT      O 8834   3.680   4.683   0.277  0.5774  0.5104 -0.4135
 2811WAT     H1 8835   3.643   4.612   0.330  1.3565  1.1601  1.0827
 2811WAT     H2 8836   3.615   4.753   0.281  0.4451  0.4053 -0.6894
 2812WAT      O 8837   7.039   3.814   5.649  0.1225  0.0223  0.2522
 2812WAT     H1 8838   7.011   3.892   5.698 -0.5740  0.4319 -0.7793
 2812WAT     H2 8839   7.020   3.742   5.709 -0.2410  0.5525  0.7998
 2813WAT      O 8840   4.195   2.520   1.123 -0.0001 -0.4301  0.5912
 2813WAT     H1 8841   4.120   2.575   1.097  2.0319  1.4590 -1.7283
 2813WAT     H2 8842   4.177   2.497   1.214 -3.3775 -0.0695  0.1470
 2814WAT      O 8843   1.860   6.509   3.369 -0.2093  0.2666  0.0432
 2814WAT     H1 8844   1.896   6.420   3.361  0.8641  0.5367  1.5661
 2814WAT     H2 8845   1.935   6.563   3.392 -1.1479  1.3025  0.7190
 2815WAT      O 8846   5.046   2.019   5.240  0.1090  0.3367  0.4364
 2815WAT     H1 8847   5.050   2.110   5.268 -1.5981  0.7071 -0.4267
 2815WAT     H2 8848   5.138   1.990   5.241  0.5538  1.6187  2.0333
 2816WAT      O 8849   2.014   2.572   1.540  0.1307  1.0762 -0.5293
 2816WAT     H1 8850   1.929   2.531   1.559  0.9872 -0.0973  0.9762
 2816WAT     H2 8851   2.062   2.505   1.492 -0.1024  2.0952 -2.2459
 2817WAT      O 8852   6.235   0.708   3.786 -0.1482  0.2925  0.3026
 2817WAT     H1 8853   6.230   0.620   3.750  1.1361  0.5504 -0.5859
 2817WAT     H2 8854   6.205   0.699   3.876  0.3213 -1.1283  0.3407
 2818WAT      O 8855   4.299   0.613   0.566  0.2159 -0.5239  0.3419
 2818WAT     H1 8856   4.393   0.599   0.553  0.2775 -0.3029  0.5438
 2818WAT     H2 8857   4.258   0.535   0.529  0.2352  0.8797 -3.0717
 2819WAT      O 8858   0.334   0.403   5.439 -0.4220 -0.1026  0.3865
 2819WAT     H1 8859   0.357   0.398   5.532 -0.6171 -1.1285  0.3912
 2819WAT     H2 8860   0.240   0.418   5.438 -0.5684 -0.9844  0.3604
 2820WAT      O 8861   1.005   3.186   3.511  0.3620 -0.0832  0.4134
 2820WAT     H1 8862   1.031   3.147   3.594  1.1629  0.7842  0.5899
 2820WAT     H2 8863   0.917   3.221   3.527 -0.0916 -1.1897  0.4421
 2821WAT      O 8864   3.793   6.559   4.227  0.2840 -0.0696 -0.0789
 2821WAT     H1 8865   3.791   6.466   4.248  0.5258 -0.2419 -0.7759
 2821WAT     H2 8866   3.884   6.577   4.203  0.0222  0.0916 -1.0012
 2822WAT      O 8867   5.251   5.257   0.857 -0.4741 -0.2043  0.0950
 2822WAT     H1 8868   5.176   5.207   0.889 -0.1866  0.6646  2.2808
 2822WAT     H2 8869   5.320   5.191   0.846 -0.9267 -0.7004  0.1884
 2823WAT      O 8870   5.070   0.115   0.806 -0.1130  0.2749 -0.7084
 2823WAT     H1 8871   5.074   0.029   0.763  1.0533 -0.3101  0.4919
 2823WAT     H2 8872   5.095   0.097   0.897 -1.0332  1.7106 -0.1405
 2824WAT      O 8873   5.965   2.456   5.224 -0.3907 -0.2859  0.1714
 2824WAT     H1 8874   5.913   2.376   5.221 -1.8822  0.6223  0.7582
 2824WAT     H2 8875   6.017   2.448   5.305  0.3321 -1.1502 -0.3652
 2825WAT      O 8876   7.652   0.113   3.323 -0.1948 -0.1468  0.1694
 2825WAT     H1 8877   7.645   0.091   3.416  2.8819 -1.4731  0.1945
 2825WAT     H2 8878   7.607   0.043   3.278 -0.2873 -0.3808  0.6200
 2826WAT      O 8879   1.907   6.224   5.559  0.4764  0.1073  0.8391
 2826WAT     H1 8880   1.951   6.193   5.639  2.0581  0.5187  0.1495
 2826WAT     H2 8881   1.814   6.226   5.583  0.9654  0.8810  2.8952
 2827WAT      O 8882   4.980   6.750   4.657  0.3938  0.0607 -0.0770
 2827WAT     H1 8883   4.924   6.765   4.733  1.2855  2.2740  0.2026
 2827WAT     H2 8884   5.041   6.682   4.685  0.9832  1.1392  1.3760
 2828WAT      O 8885   5.731   2.956   4.958 -0.4837 -0.0787 -0.4865
 2828WAT     H1 8886   5.776   2.993   5.034  1.2743 -0.9997 -1.0295
 2828WAT     H2 8887   5.705   2.869   4.986 -2.4124  0.5898 -0.0343
 2829WAT      O 8888   4.487   0.131   2.635 -0.4995  0.7907  0.4796
 2829WAT     H1 8889   4.460   0.160   2.722 -1.1363 -1.2142  1.0004
 2829WAT     H2 8890   4.475   0.036   2.636  3.2325  0.1354 -0.4548
 2830WAT      O 8891   7.549   3.860   2.315  0.6419  0.0993 -0.0611
 2830WAT     H1 8892   7.583   3.876   2.403 -0.6061  0.6174  0.3608
 2830WAT     H2 8893   7.618   3.890   2.256  0.5293  2.0849  0.7523
 2831WAT      O 8894   5.681   4.367   3.912  0.3278  0.6448 -0.1731
 2831WAT     H1 8895   5.615   4.430   3.939 -1.4163 -0.8124 -0.7606
 2831WAT     H2 8896   5.754   4.381   3.971 -0.7364  1.9422  0.8970
 2832WAT      O 8897   1.838   3.701   4.527  0.6002  0.4010  0.0928
 2832WAT     H1 8898   1.767   3.661   4.577  0.5066 -0.1747 -0.4800
 2832WAT     H2 8899   1.840   3.651   4.445  1.5490  0.5244  0.0346
 2833WAT      O 8900   0.251   0.576   0.533  0.4606  0.2443  0.4633
 2833WAT     H1 8901   0.200   0.527   0.598  0.4010  0.7023  0.7631
 2833WAT     H2 8902   0.326   0.610   0.582  0.8731 -0.1348  0.0992
 2834WAT      O 8903   6.770   5.669   3.315 -0.9783 -0.2801  0.4943
 2834WAT     H1 8904   6.686   5.638   3.350 -0.5457 -1.3925  0.5895
 2834WAT     H2 8905   6.820   5.589   3.300  0.2726  0.3918  0.9529
 2835WAT      O 8906   5.839   6.240   0.977 -0.1217 -0.0683  0.0908
 2835WAT     H1 8907   5.781   6.316   0.988 -1.2892 -0.5822 -1.8984
 2835WAT     H2 8908   5.905   6.250   1.045 -1.4046  1.6428  1.1673
 2836WAT      O 8909   2.668   1.291   2.879 -0.2462  0.0475  0.1501
 2836WAT     H1 8910   2.725   1.308   2.954  0.0183  1.2743 -0.2987
 2836WAT     H2 8911   2.728   1.267   2.808 -0.0254  3.0634 -0.8203
 2837WAT      O 8912   4.069   0.500   2.649  0.0941  0.4356  0.5398
 2837WAT     H1 8913   4.164   0.498   2.654  0.3914 -0.6950 -2.7898
 2837WAT     H2 8914   4.042   0.409   2.658 -0.7187  0.7563  1.5783
 2838WAT      O 8915   6.155   6.677   3.737 -0.7279 -1.1585 -0.0375
 2838WAT     H1 8916   6.175   6.617   3.808 -1.4309  0.8075  1.9201
 2838WAT     H2 8917   6.204   6.756   3.757 -1.8752 -0.1297 -1.0825
 2839WAT      O 8918   0.374   3.153   2.779  0.0197 -0.5020 -0.2229
 2839WAT     H1 8919   0.368   3.116   2.691 -2.7606  1.0494 -0.7869
 2839WAT     H2 8920   0.375   3.248   2.765  0.5674 -0.2408  1.4076
 2840WAT      O 8921   2.617   6.863   2.503 -0.2732  1.1457 -0.7882
 2840WAT     H1 8922   2.597   6.851   2.410  1.1739  0.5152 -1.0421
 2840WAT     H2 8923   2.651   6.953   2.508 -1.7021  1.7033 -0.5958
 2841WAT      O 8924   7.208   1.505   4.046 -0.3822 -0.5156  0.1502
 2841WAT     H1 8925   7.240   1.518   3.956 -1.5553  1.7794 -0.0171
 2841WAT     H2 8926   7.287   1.504   4.100  0.2746 -0.7491 -0.7973
 2842WAT      O 8927   3.348   0.050   4.082  0.3595  0.0624 -0.4812
 2842WAT     H1 8928   3.298   0.132   4.077  0.4034  0.0389 -2.0126
 2842WAT     H2 8929   3.344   0.024   4.174 -2.0115  0.3501 -0.4444
 2843WAT      O 8930   0.162   5.646   4.212 -0.5686 -0.2026 -0.2300
 2843WAT     H1 8931   0.239   5.659   4.267 -1.3314  0.1689  0.7893
 2843WAT     H2 8932   0.190   5.671   4.124 -0.3733  3.1733  0.6320
 2844WAT      O 8933   6.931   1.537   1.376  0.4787  0.0167 -0.1041
 2844WAT     H1 8934   6.890   1.614   1.338  1.7593  0.6052 -0.3468
 2844WAT     H2 8935   6.947   1.479   1.302 -0.1511 -0.3322  0.0280
 2845WAT      O 8936   0.995   1.747   3.939 -0.0065 -0.4463 -0.0691
 2845WAT     H1 8937   1.075   1.788   3.907 -0.6445  0.0299 -1.1014
 2845WAT     H2 8938   0.947   1.819   3.981  0.5957 -0.9616  1.5684
 2846WAT      O 8939   2.143   5.493   2.592  0.4195  0.0285 -0.8941
 2846WAT     H1 8940   2.067   5.544   2.621  0.1499 -1.6378  1.6756
 2846WAT     H2 8941   2.127   5.477   2.499 -0.3069  3.0936 -1.3822
 2847WAT      O 8942   4.131   3.951   3.441  0.4873  0.2345 -0.1151
 2847WAT     H1 8943   4.044   3.954   3.400  1.0969  1.3043 -1.4077
 2847WAT     H2 8944   4.118   3.899   3.520 -1.1584 -0.3044 -0.6923
 2848WAT      O 8945   4.257   3.077   1.483  0.3892 -0.1006 -0.1759
 2848WAT     H1 8946   4.282   3.042   1.569  0.4622  0.5432  0.0712
 2848WAT     H2 8947   4.225   3.001   1.435  3.3478 -1.1298 -0.7331
 2849WAT      O 8948   4.768   2.373   4.325  0.1824  0.1037  0.7027
 2849WAT     H1 8949   4.839   2.378   4.388  0.7655  0.2776  0.0447
 2849WAT     H2 8950   4.735   2.463   4.318  2.2975  0.8052 -1.6625
 2850WAT      O 8951   4.536   4.332   2.690 -0.6532 -0.0147 -0.3259
 2850WAT     H1 8952   4.563   4.372   2.773  2.7621 -0.2594 -1.1667
 2850WAT     H2 8953   4.519   4.241   2.712 -0.8273  0.1606  0.2769
 2851WAT      O 8954   4.149   2.644   2.766  0.1272  0.0465 -0.0675
 2851WAT     H1 8955   4.091   2.672   2.837  0.4376 -1.9228  1.0328
 2851WAT     H2 8956   4.106   2.567   2.728  2.0748 -1.6390  0.9531
 2852WAT      O 8957   3.972   6.115   3.182  0.3371 -0.9482 -0.2280
 2852WAT     H1 8958   3.927   6.185   3.229 -0.1820 -0.1266 -1.8551
 2852WAT     H2 8959   4.003   6.055   3.250  0.0878  0.4457  1.1535
 2853WAT      O 8960   0.399   1.318   5.673  0.2513  0.2202 -0.1501
 2853WAT     H1 8961   0.466   1.298   5.607 -0.8297 -0.2847 -1.1157
 2853WAT     H2 8962   0.419   1.259   5.745  0.5435 -0.2889 -0.6405
 2854WAT      O 8963   2.446   0.148   3.629 -0.1603  0.5422 -0.0271
 2854WAT     H1 8964   2.382   0.219   3.623 -2.1947 -1.2843 -1.6646
 2854WAT     H2 8965   2.395   0.071   3.654  1.7599 -0.6011  0.6200
 2855WAT      O 8966   4.235   6.324   5.124 -0.1205  0.0189 -0.0509
 2855WAT     H1 8967   4.227   6.388   5.053  0.4391 -1.0324 -1.0887
 2855WAT     H2 8968   4.298   6.259   5.092 -0.0099 -0.5944  1.3268
 2856WAT      O 8969   4.920   2.813   2.337  0.7775 -0.2448  0.0047
 2856WAT     H1 8970   4.964   2.888   2.378  0.9047 -0.9727  1.2442
 2856WAT     H2 8971   4.869   2.774   2.408  1.2874 -1.7676 -0.4382
 2857WAT      O 8972   3.648   5.001   2.773 -0.0823  0.4887 -0.4021
 2857WAT     H1 8973   3.700   5.074   2.807 -0.7750  0.8722 -0.1466
 2857WAT     H2 8974   3.595   4.972   2.847 -0.8335  0.6458 -0.8566
 2858WAT      O 8975   1.710   3.481   2.740  0.0468 -0.4535  0.0424
 2858WAT     H1 8976   1.692   3.573   2.720 -1.0211 -0.6301  0.1352
 2858WAT     H2 8977   1.797   3.465   2.701  0.4712  0.7137  0.4613
 2859WAT      O 8978   0.489   6.968   5.435  0.2908 -0.0314 -0.1539
 2859WAT     H1 8979   0.422   6.900   5.433 -1.1791  1.0368  3.6863
 2859WAT     H2 8980   0.510   6.978   5.528  0.9016  4.2787 -0.5690
 2860WAT      O 8981   1.816   1.301   2.172  0.3552  0.0791  0.4829
 2860WAT     H1 8982   1.885   1.284   2.236  3.0244  0.0564 -2.1841
 2860WAT     H2 8983   1.776   1.215   2.158 -1.8108  0.4278  3.5426
 2861WAT      O 8984   2.570   5.531   3.813  0.1682  0.5148  0.0302
 2861WAT     H1 8985   2.656   5.556   3.846  1.3298 -1.0092 -1.6320
 2861WAT     H2 8986   2.537   5.469   3.878 -1.1097  3.3118  2.2448
 2862WAT      O 8987   3.305   3.717   0.545  0.0591  0.1537  0.2938
 2862WAT     H1 8988   3.374   3.670   0.592 -1.5124 -1.1972  1.3502
 2862WAT     H2 8989   3.283   3.660   0.471  0.9067  1.1848 -0.8023
 2863WAT      O 8990   4.385   0.828   1.786 -0.5675 -0.0315  0.0659
 2863WAT     H1 8991   4.342   0.833   1.872 -0.1225  1.5707  0.2365
 2863WAT     H2 8992   4.443   0.904   1.785  0.3487 -0.7163 -1.1826
 2864WAT      O 8993   3.288   5.885   6.207 -0.6316 -0.2295  0.3352
 2864WAT     H1 8994   3.381   5.877   6.228 -0.8511  0.2869  1.6309
 2864WAT     H2 8995   3.250   5.802   6.235 -0.8274  0.2311  1.4922
 2865WAT      O 8996   1.439   0.316   2.064  0.5556 -0.2758  0.2294
 2865WAT     H1 8997   1.392   0.382   2.114  2.0114  0.6144  0.4959
 2865WAT     H2 8998   1.454   0.245   2.127  0.1916 -0.2584  0.3372
 2866WAT      O 8999   4.898   5.676   1.040 -0.2717  0.0620 -0.1919
 2866WAT     H1 9000   4.984   5.690   1.000 -0.1528  0.9699  0.3562
 2866WAT     H2 9001   4.904   5.718   1.126 -1.2671  0.1497 -0.1553
 2867WAT      O 9002   1.928   4.101   0.721 -0.2745  0.3833 -0.2051
 2867WAT     H1 9003   1.965   4.083   0.808 -1.3881  0.5045  0.3142
 2867WAT     H2 9004   1.892   4.189   0.729 -1.3088 -0.0066 -0.4616
 2868WAT      O 9005   5.850   2.016   5.781  0.6232  0.2956  0.2179
 2868WAT     H1 9006   5.790   1.978   5.845  1.8086 -1.3553  0.4069
 2868WAT     H2 9007   5.904   2.077   5.832 -0.0959  0.8874  0.2800
 2869WAT      O 9008   5.168   4.811   5.006 -0.5103  0.4407 -0.4395
 2869WAT     H1 9009   5.173   4.904   5.029 -0.3120 -0.0797  1.9033
 2869WAT     H2 9010   5.182   4.765   5.089  1.1974 -1.7207 -1.8073
 2870WAT      O 9011   3.429   5.943   0.838  0.1833  0.0075  0.1382
 2870WAT     H1 9012   3.351   5.985   0.877 -0.2223  0.2377 -0.8942
 2870WAT     H2 9013   3.401   5.854   0.819 -0.0545  0.2737 -0.8319
 2871WAT      O 9014   5.792   0.751   3.677 -0.1333 -0.1819  0.3380
 2871WAT     H1 9015   5.704   0.738   3.713 -0.6806 -1.9007 -1.4318
 2871WAT     H2 9016   5.826   0.662   3.666  0.5292  0.3051 -2.0371
 2872WAT      O 9017   2.280   6.655   5.214 -0.3405 -0.0875  0.2930
 2872WAT     H1 9018   2.338   6.731   5.209  1.5208 -1.5144 -2.1821
 2872WAT     H2 9019   2.301   6.614   5.298  0.0573  1.0645  0.7670
 2873WAT      O 9020   6.355   7.026   6.011 -0.6001 -0.1741 -0.1467
 2873WAT     H1 9021   6.274   6.978   6.026  0.4069 -2.5884 -1.7874
 2873WAT     H2 9022   6.417   6.989   6.075 -0.2813  0.2657 -0.1934
 2874WAT      O 9023   3.328   6.823   0.959 -0.3370  0.6524  0.1345
 2874WAT     H1 9024   3.372   6.895   0.913  1.0326 -0.3765 -0.2121
 2874WAT     H2 9025   3.313   6.857   1.047 -1.1908  1.9294 -0.4700
 2875WAT      O 9026   1.901   2.345   3.063 -0.1065 -0.1712  0.0822
 2875WAT     H1 9027   1.829   2.369   3.121  1.0325  0.6132  1.2184
 2875WAT     H2 9028   1.948   2.428   3.047 -0.4727 -0.3242 -2.1140
 2876WAT      O 9029   3.175   1.910   3.984  0.2301 -0.1717 -0.2707
 2876WAT     H1 9030   3.207   1.996   3.960 -1.3059  0.3582 -0.5388
 2876WAT     H2 9031   3.203   1.898   4.074 -0.3037  1.0177  0.0755
 2877WAT      O 9032   3.537   2.371   2.524  0.8635  0.2141  0.4717
 2877WAT     H1 9033   3.541   2.456   2.568  0.9346  0.1132  0.6616
 2877WAT     H2 9034   3.457   2.331   2.556  0.3497  0.5826 -0.3093
 2878WAT      O 9035   1.920   1.695   4.089  0.0980 -0.2679  0.2222
 2878WAT     H1 9036   1.924   1.660   4.000 -3.1694  1.3782 -0.7085
 2878WAT     H2 9037   1.989   1.761   4.092 -0.1403  0.0883 -1.3382
 2879WAT      O 9038   2.281   5.917   4.952  0.2421 -0.1042  0.2074
 2879WAT     H1 9039   2.369   5.947   4.976  0.5976 -1.0261  0.1077
 2879WAT     H2 9040   2.242   5.992   4.906  0.4583  0.8009  1.4273
 2880WAT      O 9041   5.309   5.962   4.860  0.5323 -0.1427  0.2269
 2880WAT     H1 9042   5.369   6.037   4.852 -0.3253  0.6199  0.7699
 2880WAT     H2 9043   5.237   5.995   4.914 -0.2594 -1.1244 -0.2131
 2881WAT      O 9044   4.395   3.222   4.975  0.1224 -0.6422 -0.6377
 2881WAT     H1 9045   4.348   3.159   4.921  2.2054 -3.2713  0.4163
 2881WAT     H2 9046   4.438   3.170   5.043  2.1342  1.8741  0.2172
 2882WAT      O 9047   6.165   0.461   3.700 -0.5907  0.1142  0.4846
 2882WAT     H1 9048   6.070   0.448   3.694 -0.6563  1.1170 -1.7385
 2882WAT     H2 9049   6.203   0.380   3.667 -0.7364  0.2509 -0.0413
 2883WAT      O 9050   4.783   0.845   2.135  0.1797 -0.5929 -0.2856
 2883WAT     H1 9051   4.758   0.843   2.228 -1.4453  0.3504 -0.6683
 2883WAT     H2 9052   4.839   0.923   2.127  0.2929 -0.6551 -0.1007
 2884WAT      O 9053   3.598   2.702   5.003 -0.0516  0.6326  0.3120
 2884WAT     H1 9054   3.676   2.703   5.059 -0.1566 -2.4221  0.6429
 2884WAT     H2 9055   3.537   2.762   5.047  1.1813  1.1085  1.4402
 2885WAT      O 9056   5.661   0.941   4.105 -0.2607 -0.3359  0.0472
 2885WAT     H1 9057   5.599   0.984   4.165 -1.6417 -1.2209 -0.6849
 2885WAT     H2 9058   5.700   1.014   4.057  1.1145  0.4290  2.1601
 2886WAT      O 9059   7.414   5.714   1.186 -0.0458  0.1210  0.0080
 2886WAT     H1 9060   7.338   5.693   1.132 -1.0133  1.9696  0.5608
 2886WAT     H2 9061   7.381   5.715   1.276  0.9865 -0.5072  0.4166
 2887WAT      O 9062   0.635   0.218   5.623 -0.0139 -0.0740 -0.3407
 2887WAT     H1 9063   0.700   0.158   5.659 -1.0843 -0.6724  0.6673
 2887WAT     H2 9064   0.581   0.243   5.698 -1.0642  0.2561 -1.1838
 2888WAT      O 9065   1.624   3.396   4.052  0.6494 -0.1111  0.7852
 2888WAT     H1 9066   1.633   3.482   4.093  0.8807 -0.0592  0.6251
 2888WAT     H2 9067   1.710   3.356   4.060  0.7564 -0.0170  0.1662
 2889WAT      O 9068   5.851   0.795   4.856 -0.0330 -0.4535  0.2827
 2889WAT     H1 9069   5.825   0.881   4.889 -1.2940 -1.1862  1.2604
 2889WAT     H2 9070   5.778   0.768   4.800 -0.5482 -1.7016  1.5129
 2890WAT      O 9071   2.349   6.811   0.053 -0.1252 -0.1385 -0.3801
 2890WAT     H1 9072   2.376   6.803  -0.039 -0.8177 -0.4967 -0.5637
 2890WAT     H2 9073   2.302   6.894   0.057  1.2029  0.6285  0.0047
 2891WAT      O 9074   6.766   0.047   5.842  0.8185 -0.3907 -0.4283
 2891WAT     H1 9075   6.850   0.080   5.809  1.6877 -1.1591  0.8747
 2891WAT     H2 9076   6.775   0.052   5.938 -1.1766  0.8047 -0.2412
 2892WAT      O 9077   4.693   3.574   5.707  0.0732  0.1916 -0.1834
 2892WAT     H1 9078   4.677   3.661   5.672  0.2778 -0.2576 -1.4573
 2892WAT     H2 9079   4.649   3.573   5.792 -1.4904  0.9382 -0.9521
 2893WAT      O 9080   0.753   0.122   1.831  0.5683 -0.0136  0.1576
 2893WAT     H1 9081   0.721   0.064   1.761 -0.4521  1.5258 -0.7150
 2893WAT     H2 9082   0.802   0.064   1.889  1.4963 -1.3514 -1.8486
 2894WAT      O 9083   1.184   6.009   3.214 -0.4030 -0.1218 -0.1376
 2894WAT     H1 9084   1.176   5.933   3.273  1.3860 -0.5812 -0.4231
 2894WAT     H2 9085   1.240   6.070   3.261 -1.9074  1.1287  0.1284
 2895WAT      O 9086   6.134   3.924   5.185 -0.1452  0.5941  0.4597
 2895WAT     H1 9087   6.100   3.927   5.096  0.3449  1.8764  0.3006
 2895WAT     H2 9088   6.126   4.013   5.217  0.5761  0.3456  1.3699
 2896WAT      O 9089   4.555   5.341   0.856 -0.8179 -0.0284 -0.3533
 2896WAT     H1 9090   4.577   5.263   0.804 -0.1879  0.4221 -0.7855
 2896WAT     H2 9091   4.559   5.311   0.947  0.0388 -0.3641 -0.4909
 2897WAT      O 9092   6.014   6.195   4.135  0.0971 -0.2034 -0.4047
 2897WAT     H1 9093   5.999   6.189   4.229 -1.3729  1.5050 -0.4832
 2897WAT     H2 9094   5.932   6.167   4.095 -0.0798  1.2253 -1.1060
 2898WAT      O 9095   6.278   4.863   2.521 -0.3631  0.1367  0.2560
 2898WAT     H1 9096   6.262   4.807   2.444 -2.5808 -2.3315  2.3490
 2898WAT     H2 9097   6.220   4.938   2.509 -1.6172 -0.8386  0.0905
 2899WAT      O 9098   6.504   1.746   5.547 -0.2487  0.1506 -0.3849
 2899WAT     H1 9099   6.479   1.658   5.577  0.9975 -0.0848  0.0569
 2899WAT     H2 9100   6.461   1.756   5.462 -0.8839 -0.6496 -0.1712
 2900WAT      O 9101   5.057   2.741   5.896 -0.3683  0.0366  0.2325
 2900WAT     H1 9102   5.040   2.652   5.865 -0.5895 -0.3143  1.2910
 2900WAT     H2 9103   5.113   2.729   5.973  0.2450  0.8654 -0.0726
 2901WAT      O 9104   5.279   0.517   3.659  0.4502  0.1975 -0.3401
 2901WAT     H1 9105   5.310   0.430   3.634 -0.8264 -0.0988 -0.9673
 2901WAT     H2 9106   5.336   0.543   3.731 -0.6403 -2.1862  1.5305
 2902WAT      O 9107   1.679   3.293   4.862 -0.2343  0.3828 -0.2257
 2902WAT     H1 9108   1.654   3.249   4.944  1.1828  4.0608  2.4468
 2902WAT     H2 9109   1.596   3.309   4.818 -0.9738 -2.5383 -0.1375
 2903WAT      O 9110   5.904   7.151   0.634  0.2273 -0.9508  0.3899
 2903WAT     H1 9111   5.935   7.176   0.721 -2.4534  0.7570  0.9508
 2903WAT     H2 9112   5.833   7.089   0.650  1.3876 -2.6985 -0.7624
 2904WAT      O 9113   1.566   6.998   5.950  0.1971  0.6523  0.1169
 2904WAT     H1 9114   1.546   7.054   5.875  1.1584  0.2581 -0.4590
 2904WAT     H2 9115   1.596   7.059   6.018  0.2534  0.9273 -0.1528
 2905WAT      O 9116   7.194   0.793   2.058 -0.2337 -0.1798 -0.2077
 2905WAT     H1 9117   7.237   0.710   2.040 -0.4810 -0.2726 -0.3704
 2905WAT     H2 9118   7.208   0.808   2.152 -0.8392 -0.7782 -0.0158
 2906WAT      O 9119   6.599   6.166   2.827  0.0752  0.0972  0.3946
 2906WAT     H1 9120   6.525   6.190   2.883 -0.0665  1.3454 -0.2696
 2906WAT     H2 9121   6.589   6.222   2.749 -0.7908 -2.8078 -1.7681
 2907WAT      O 9122   4.967   1.077   2.172 -0.2913  0.4428  0.0230
 2907WAT     H1 9123   4.967   1.098   2.265 -1.0327  0.4454  0.0252
 2907WAT     H2 9124   4.939   1.158   2.129  2.4805  1.2968 -0.4296
 2908WAT      O 9125   1.988   0.853   0.609 -0.3399 -0.1272 -0.2437
 2908WAT     H1 9126   1.945   0.768   0.601  0.0507 -0.2609 -0.9790
 2908WAT     H2 9127   1.918   0.913   0.634 -0.7160 -0.5705 -0.2278
 2909WAT      O 9128   3.897   5.023   0.308 -0.3533  0.2535  0.0913
 2909WAT     H1 9129   3.818   5.061   0.270 -0.8522 -0.0878  0.7657
 2909WAT     H2 9130   3.879   4.929   0.313 -0.0700  0.2216  0.6229
 2910WAT      O 9131   0.200   4.643   2.863 -0.9058 -0.2052 -0.2003
 2910WAT     H1 9132   0.256   4.591   2.805  0.5015 -0.3479  1.2210
 2910WAT     H2 9133   0.204   4.598   2.947 -1.0350  1.2625  0.6210
 2911WAT      O 9134   1.337   4.295   1.181 -0.1398  0.4688  0.4193
 2911WAT     H1 9135   1.418   4.301   1.131 -0.5314  0.0384 -0.2812
 2911WAT     H2 9136   1.353   4.347   1.260  0.8102  0.3872  0.2832
 2912WAT      O 9137   3.951   2.800   0.109 -0.1723 -0.4356  0.0991
 2912WAT     H1 9138   3.937   2.861   0.182 -1.8484 -1.1371  0.3902
 2912WAT     H2 9139   3.863   2.777   0.079  0.4742 -0.6631 -1.7442
 2913WAT      O 9140   7.198   3.122   1.515  0.0927 -0.3682  0.1381
 2913WAT     H1 9141   7.181   3.214   1.492  1.9748  0.0085  0.1290
 2913WAT     H2 9142   7.233   3.125   1.603  1.4041 -0.9328 -0.3435
 2914WAT      O 9143   2.815   4.515   2.620  0.2055 -0.1552  0.1236
 2914WAT     H1 9144   2.853   4.487   2.536  0.3295  2.5891 -0.8462
 2914WAT     H2 9145   2.727   4.477   2.619  0.0254  0.2093 -1.5106
 2915WAT      O 9146   6.227   4.409   4.629 -0.4947 -0.0866  0.0013
 2915WAT     H1 9147   6.304   4.433   4.577  0.8508  0.0529  1.9470
 2915WAT     H2 9148   6.153   4.431   4.574  0.8449 -0.1372 -1.9237
 2916WAT      O 9149   6.579   4.553   3.610  0.2305  0.6061  0.7509
 2916WAT     H1 9150   6.554   4.463   3.631 -0.6350  0.2975 -1.3198
 2916WAT     H2 9151   6.651   4.573   3.670  1.5787 -2.0666  0.1694
 2917WAT      O 9152   6.728   0.814   5.485 -0.0846 -0.0981 -0.4950
 2917WAT     H1 9153   6.748   0.726   5.519 -0.3079  0.3461  0.8278
 2917WAT     H2 9154   6.720   0.801   5.390 -2.0008 -1.8768 -0.1689
 2918WAT      O 9155   2.525   5.418   5.439 -0.0300  0.0962 -0.1556
 2918WAT     H1 9156   2.516   5.371   5.522 -0.5305 -0.5576 -0.5634
 2918WAT     H2 9157   2.539   5.509   5.464 -2.0393  0.2408  0.6376
 2919WAT      O 9158   2.427   1.069   3.328 -0.4190 -0.0491 -0.0209
 2919WAT     H1 9159   2.404   1.041   3.416  0.8266  0.6076  0.5460
 2919WAT     H2 9160   2.523   1.070   3.328 -0.4007 -0.1477 -1.4236
 2920WAT      O 9161   7.295   4.172   5.673 -0.2492 -0.3240  0.3772
 2920WAT     H1 9162   7.374   4.119   5.681 -0.8257 -1.0681  1.4235
 2920WAT     H2 9163   7.246   4.154   5.753 -1.5027  0.0826 -0.2727
 2921WAT      O 9164   3.819   3.415   0.223 -0.3928  0.1827  0.0575
 2921WAT     H1 9165   3.842   3.327   0.192 -0.2916  0.1761  0.1526
 2921WAT     H2 9166   3.879   3.432   0.295  0.5447  0.8994 -0.8629
 2922WAT      O 9167   4.611   3.358   3.430 -0.3941  0.1283  0.2141
 2922WAT     H1 9168   4.698   3.318   3.437 -0.1614  0.8133  1.6926
 2922WAT     H2 9169   4.617   3.415   3.354 -0.0376 -0.9581 -0.5995
 2923WAT      O 9170   4.588   3.692   1.067 -0.0803  0.4941 -0.0606
 2923WAT     H1 9171   4.591   3.696   1.162 -1.2010  0.0071  0.0017
 2923WAT     H2 9172   4.615   3.603   1.046 -0.5260  0.3853 -0.1677
 2924WAT      O 9173   4.828   1.658   4.300  0.4700  0.2768  0.1462
 2924WAT     H1 9174   4.817   1.642   4.206  0.5647  0.4515  0.1052
 2924WAT     H2 9175   4.892   1.729   4.305  0.3724  0.3517  0.3399
 2925WAT      O 9176   1.510   4.603   1.647  0.3256 -0.5097 -0.7650
 2925WAT     H1 9177   1.559   4.641   1.574 -0.0951 -1.8944 -1.8444
 2925WAT     H2 9178   1.565   4.530   1.677  1.1528  0.8846  1.2909
 2926WAT      O 9179   5.807   0.009   1.471  0.0257  0.3316 -0.1414
 2926WAT     H1 9180   5.745  -0.064   1.479  0.5864 -0.3200 -1.3933
 2926WAT     H2 9181   5.751   0.086   1.455 -0.4969 -0.2028 -1.0019
 2927WAT      O 9182   5.045   3.024   2.469 -0.3031  0.4903  0.3997
 2927WAT     H1 9183   5.085   2.992   2.550  2.5664  1.7444 -0.4006
 2927WAT     H2 9184   4.996   3.102   2.495  0.5992  0.8894  0.9323
 2928WAT      O 9185   7.449   1.169   4.492 -0.0667  0.2313  0.1604
 2928WAT     H1 9186   7.514   1.181   4.561 -0.4374  1.1260  0.3621
 2928WAT     H2 9187   7.498   1.175   4.411  0.7064 -2.6188  0.2821
 2929WAT      O 9188   1.087   1.086   1.952  0.7165  0.0247 -0.1021
 2929WAT     H1 9189   1.021   1.155   1.951 -0.2134 -0.8324 -0.2278
 2929WAT     H2 9190   1.120   1.086   2.042 -0.0665 -0.0807  0.1961
 2930WAT      O 9191   5.880   4.083   4.632  0.4401  0.0624 -0.5331
 2930WAT     H1 9192   5.970   4.113   4.642  0.7639 -0.9748 -0.2108
 2930WAT     H2 9193   5.877   3.999   4.679 -0.6534  0.0175 -0.6537
 2931WAT      O 9194   6.927   3.858   6.093 -0.4132 -0.1448  0.5084
 2931WAT     H1 9195   6.905   3.947   6.122  0.7262  0.3792 -0.1621
 2931WAT     H2 9196   6.857   3.804   6.128 -2.3592  1.3071 -0.9116
 2932WAT      O 9197   3.960   4.981   1.927  0.2915  0.1294 -0.1063
 2932WAT     H1 9198   3.961   5.066   1.971  0.7450 -0.2919  0.7340
 2932WAT     H2 9199   4.041   4.939   1.955  1.1297  0.2455 -2.2006
 2933WAT      O 9200   5.997   7.214   1.721  0.4347  0.2844 -0.2471
 2933WAT     H1 9201   6.074   7.196   1.776  1.0629  0.8828 -0.9005
 2933WAT     H2 9202   5.931   7.152   1.751  1.3145 -0.5386  0.0573
 2934WAT      O 9203   3.463   2.563   0.062  0.0916  0.6456  0.3636
 2934WAT     H1 9204   3.471   2.656   0.038  4.2921  0.6715  1.2673
 2934WAT     H2 9205   3.460   2.563   0.157 -1.6593 -0.1492  0.3473
 2935WAT      O 9206   3.242   2.986   5.319 -0.3697  0.4481  0.0830
 2935WAT     H1 9207   3.315   3.035   5.358 -0.6319  2.7168 -2.0281
 2935WAT     H2 9208   3.240   3.014   5.228 -1.0825 -3.0390 -1.1250
 2936WAT      O 9209   1.869   3.263   5.143  0.2202 -0.0346 -0.6112
 2936WAT     H1 9210   1.797   3.321   5.170  0.8771 -0.1181  1.4779
 2936WAT     H2 9211   1.942   3.323   5.126  0.3544 -0.1051 -0.2968
 2937WAT      O 9212   5.743   0.078   4.858  0.1135  0.1537 -0.3911
 2937WAT     H1 9213   5.685   0.004   4.877  0.1442  0.4724  1.1163
 2937WAT     H2 9214   5.702   0.152   4.904  1.2007  0.5863 -0.0986
 2938WAT      O 9215   6.916   2.634   3.497 -0.2853  0.0480  0.2353
 2938WAT     H1 9216   6.991   2.595   3.453 -1.2049  0.8638 -2.1920
 2938WAT     H2 9217   6.889   2.568   3.562  1.9044 -0.6411  0.5141
 2939WAT      O 9218   6.640   0.937   4.755 -0.0277  0.3041 -0.3213
 2939WAT     H1 9219   6.576   0.884   4.803  0.8204  0.6767  1.2634
 2939WAT     H2 9220   6.619   1.027   4.780  1.4172  0.4029  0.6518
 2940WAT      O 9221   0.576   1.122   0.195  0.3269  0.3373  0.0680
 2940WAT     H1 9222   0.520   1.200   0.198 -3.2385 -1.9497 -1.3084
 2940WAT     H2 9223   0.606   1.118   0.104  2.3102  1.1290  0.6233
 2941WAT      O 9224   7.190   4.540   2.677  0.3409  0.2742  0.2091
 2941WAT     H1 9225   7.265   4.552   2.736 -1.3719  1.0566  2.4175
 2941WAT     H2 9226   7.129   4.487   2.728 -1.5036  1.5418 -0.5650
 2942WAT      O 9227   7.435   0.609   5.275  0.0040  0.1239  0.0612
 2942WAT     H1 9228   7.358   0.589   5.328 -0.6386 -1.4819 -1.3848
 2942WAT     H2 9229   7.400   0.645   5.194  0.8339  0.4556 -0.1649
 2943WAT      O 9230   3.667   3.023   0.182  0.1037 -0.4290 -0.1957
 2943WAT     H1 9231   3.742   3.005   0.238 -0.2561 -1.3856 -0.0044
 2943WAT     H2 9232   3.593   2.979   0.225 -0.4109 -0.1696 -0.7881
 2944WAT      O 9233   1.223   0.560   4.945  0.3368  0.1541  0.0949
 2944WAT     H1 9234   1.255   0.611   4.870  0.4273  1.5357  1.0279
 2944WAT     H2 9235   1.154   0.504   4.909 -0.6808  1.8884 -0.7629
 2945WAT      O 9236   6.043   2.503   4.146 -0.1997  0.1118  0.4697
 2945WAT     H1 9237   6.053   2.474   4.237 -1.5971 -1.0215  0.2932
 2945WAT     H2 9238   5.977   2.572   4.150  1.0378  1.3417  0.5104
 2946WAT      O 9239   6.843   1.270   4.321  0.1166  0.6915  0.2079
 2946WAT     H1 9240   6.840   1.228   4.407 -1.3895 -3.7903 -1.7510
 2946WAT     H2 9241   6.932   1.257   4.290  0.0984  0.4452  0.2613
 2947WAT      O 9242   4.634   5.245   3.322  0.1069  0.0957  0.2392
 2947WAT     H1 9243   4.621   5.159   3.363 -0.0561  0.0754  0.1438
 2947WAT     H2 9244   4.669   5.225   3.235 -0.6398  0.0992 -0.0671
 2948WAT      O 9245   7.563   6.147   1.900 -0.0050 -0.1491 -0.1419
 2948WAT     H1 9246   7.598   6.160   1.812  0.5785  0.6573  0.2039
 2948WAT     H2 9247   7.625   6.191   1.958 -0.2017 -0.9582  0.7114
 2949WAT      O 9248   1.144   2.585   4.433 -0.0751  0.3611 -0.8275
 2949WAT     H1 9249   1.207   2.646   4.393 -0.4444  1.4333  0.1739
 2949WAT     H2 9250   1.103   2.542   4.358  2.5470 -1.1636 -1.5340
 2950WAT      O 9251   7.527   3.459   0.260 -0.3380 -0.2803 -0.4466
 2950WAT     H1 9252   7.456   3.409   0.299 -1.6165 -0.3990 -2.7736
 2950WAT     H2 9253   7.509   3.550   0.287 -0.9513 -0.4086 -0.4007
 2951WAT      O 9254   5.904   2.888   1.299 -0.0614 -0.1211  0.3267
 2951WAT     H1 9255   5.882   2.920   1.386 -0.9312  1.0865 -0.3197
 2951WAT     H2 9256   5.905   2.792   1.309 -1.7253 -0.0762  1.3053
 2952WAT      O 9257   2.599   3.683   6.227 -0.0028 -0.3619  0.1202
 2952WAT     H1 9258   2.648   3.684   6.145  0.1826 -2.3377  0.1528
 2952WAT     H2 9259   2.666   3.671   6.294 -0.3700 -1.9188  0.2560
 2953WAT      O 9260   3.441   1.711   4.048 -0.0755 -0.2127  0.1036
 2953WAT     H1 9261   3.403   1.657   4.118 -0.5278 -1.5698 -1.1547
 2953WAT     H2 9262   3.475   1.648   3.985 -1.0743  0.9413 -1.6732
 2954WAT      O 9263   6.832   1.942   4.000  0.1057  0.3622  0.0914
 2954WAT     H1 9264   6.751   1.919   3.955  0.9433 -0.3954 -1.0638
 2954WAT     H2 9265   6.898   1.949   3.931  1.5657 -1.4357  1.1972
 2955WAT      O 9266   2.375   3.983   0.226  0.2278  0.3557  0.3698
 2955WAT     H1 9267   2.469   3.971   0.244 -0.1355 -0.6322  1.8032
 2955WAT     H2 9268   2.332   3.955   0.307 -1.4742 -2.5179 -1.3470
 2956WAT      O 9269   6.032   2.350   4.374  0.2374 -0.3767  0.5733
 2956WAT     H1 9270   6.055   2.261   4.400 -0.8905 -0.5350  1.0621
 2956WAT     H2 9271   6.095   2.406   4.420 -0.0197 -0.8310  1.4979
 2957WAT      O 9272   2.482   3.805   0.948  0.1414  0.5666 -0.2222
 2957WAT     H1 9273   2.434   3.735   0.905  0.2287  0.2737  0.1482
 2957WAT     H2 9274   2.439   3.815   1.034  0.6454  0.4024  0.0542
 2958WAT      O 9275   1.137   2.710   0.789  0.2884  0.5346  0.0866
 2958WAT     H1 9276   1.223   2.736   0.756 -0.0468  0.4522 -0.9064
 2958WAT     H2 9277   1.088   2.792   0.796  0.1653  0.4907 -0.2260
 2959WAT      O 9278   6.689   5.967   0.068 -0.0509  0.4544 -0.2755
 2959WAT     H1 9279   6.754   5.897   0.072  0.7825  1.2424  0.5617
 2959WAT     H2 9280   6.627   5.945   0.138 -0.0123  0.3364 -0.2778
 2960WAT      O 9281   7.330   3.332   0.358 -0.5763 -0.0552 -0.3934
 2960WAT     H1 9282   7.260   3.384   0.396 -0.1053  0.9154 -0.8160
 2960WAT     H2 9283   7.358   3.274   0.429  1.0808  2.5030  1.1999
 2961WAT      O 9284   1.512   2.974   3.607 -0.1756  0.3294  0.5438
 2961WAT     H1 9285   1.596   2.947   3.571  0.8944  1.3191  2.1669
 2961WAT     H2 9286   1.495   3.060   3.568 -0.9402 -0.2830 -0.5197
 2962WAT      O 9287   5.878   3.010   0.432 -0.1271  0.2331 -0.0691
 2962WAT     H1 9288   5.962   2.999   0.386  0.0569  0.6839  0.1533
 2962WAT     H2 9289   5.860   3.104   0.428  1.3816  0.8321  3.2951
 2963WAT      O 9290   0.277   2.841   4.494  0.6457  0.1132 -0.5731
 2963WAT     H1 9291   0.303   2.907   4.558 -2.6339  1.5676 -0.5328
 2963WAT     H2 9292   0.289   2.884   4.409  2.4478 -0.8528 -0.8630
 2964WAT      O 9293   0.617   5.068   3.990  0.0964  1.0787 -0.0575
 2964WAT     H1 9294   0.590   4.978   3.975 -0.4309  1.1496  0.4168
 2964WAT     H2 9295   0.662   5.066   4.075  1.1901  1.0483 -0.6145
 2965WAT      O 9296   2.924   6.234   1.275 -0.1277  0.0486 -0.5001
 2965WAT     H1 9297   2.838   6.273   1.290 -0.3359 -0.3581 -0.6225
 2965WAT     H2 9298   2.909   6.166   1.209  0.0601 -0.8586  0.3699
 2966WAT      O 9299   3.975   0.325   2.064  0.1380  0.0008 -0.5477
 2966WAT     H1 9300   4.012   0.341   2.151  0.1078  2.3231 -0.9018
 2966WAT     H2 9301   4.028   0.254   2.028  0.9095 -0.2025  0.9122
 2967WAT      O 9302   1.757   4.135   1.662 -0.5128 -0.0087  0.1870
 2967WAT     H1 9303   1.818   4.136   1.736  0.1294 -0.3602 -0.3311
 2967WAT     H2 9304   1.710   4.052   1.670 -1.2699  0.4729  0.8560
 2968WAT      O 9305   1.777   5.259   3.687 -0.4355  0.3341  0.1465
 2968WAT     H1 9306   1.863   5.286   3.719  0.1519 -2.2351  0.9328
 2968WAT     H2 9307   1.722   5.254   3.765 -0.8743  0.4890 -0.1479
 2969WAT      O 9308   0.831   5.915   1.350 -0.1479 -0.2041  0.0775
 2969WAT     H1 9309   0.886   5.843   1.380 -1.5222 -1.1282  0.4905
 2969WAT     H2 9310   0.772   5.932   1.423  0.2935  1.5279  0.0777
 2970WAT      O 9311   3.231   6.993   4.282  0.4043 -0.2227  0.0145
 2970WAT     H1 9312   3.293   7.065   4.294 -0.1114  0.1451  0.5477
 2970WAT     H2 9313   3.285   6.919   4.255  0.8653  0.5274 -1.1884
 2971WAT      O 9314   5.627   3.715   3.209 -0.0763 -0.3869 -0.6827
 2971WAT     H1 9315   5.594   3.751   3.126 -1.4791 -0.2667 -0.1047
 2971WAT     H2 9316   5.722   3.724   3.203 -0.2899  2.2769 -1.0903
 2972WAT      O 9317   6.872   2.395   2.130  0.0951  0.2263  0.0188
 2972WAT     H1 9318   6.898   2.334   2.061 -0.1586 -0.5288  0.5813
 2972WAT     H2 9319   6.931   2.470   2.119  0.4300 -0.1246 -0.6570
 2973WAT      O 9320   1.364   2.075   1.733  0.1602  0.1026  0.3632
 2973WAT     H1 9321   1.285   2.031   1.762  0.6236 -0.1579  1.2490
 2973WAT     H2 9322   1.398   2.119   1.811  0.0215  1.5662 -0.3611
 2974WAT      O 9323   4.646   4.906   0.543  0.0085 -0.4442  0.1440
 2974WAT     H1 9324   4.645   4.932   0.451 -1.4629  1.3139  0.5984
 2974WAT     H2 9325   4.682   4.818   0.542  2.0574  0.3118 -1.8772
 2975WAT      O 9326   5.872   5.117   2.069  0.1509  0.4597 -0.0132
 2975WAT     H1 9327   5.821   5.084   2.143 -0.0772  0.0152 -0.3700
 2975WAT     H2 9328   5.960   5.081   2.083  0.2969  0.9797  0.4375
 2976WAT      O 9329   4.000   1.160   1.926 -0.5002  0.4933  0.4458
 2976WAT     H1 9330   3.941   1.121   1.990 -1.0034  0.7999  0.1690
 2976WAT     H2 9331   4.040   1.234   1.972  0.6802 -0.4913  1.0724
 2977WAT      O 9332   7.313   0.236   3.670 -0.2745  0.5012 -0.3196
 2977WAT     H1 9333   7.312   0.142   3.652 -2.4923  0.5912 -0.9797
 2977WAT     H2 9334   7.234   0.251   3.722 -1.0910  2.2607 -1.9264
 2978WAT      O 9335   1.224   5.150   3.956  0.1624 -0.2840 -0.0139
 2978WAT     H1 9336   1.306   5.197   3.967  0.2414  0.1573 -2.0172
 2978WAT     H2 9337   1.156   5.216   3.970  0.1848 -0.3865  0.5663
 2979WAT      O 9338   1.524   3.972   1.292  0.2080 -0.1689 -0.0249
 2979WAT     H1 9339   1.517   4.057   1.336 -0.0763 -0.4331  0.4592
 2979WAT     H2 9340   1.535   3.910   1.364  3.3710 -0.2911 -0.4684
 2980WAT      O 9341   7.021   5.647   1.540 -0.1853  0.3996  0.0920
 2980WAT     H1 9342   7.027   5.600   1.624  1.9664  0.8117  0.2263
 2980WAT     H2 9343   6.973   5.587   1.483 -0.2022 -0.6294  1.1299
 2981WAT      O 9344   5.187   1.702   2.783  0.3869 -0.3424  0.3167
 2981WAT     H1 9345   5.229   1.781   2.815  0.3021 -0.1601 -0.0176
 2981WAT     H2 9346   5.138   1.668   2.859  0.7877 -0.3261  0.5842
 2982WAT      O 9347   0.677   6.200   3.694 -0.0272 -0.2933  0.0122
 2982WAT     H1 9348   0.725   6.247   3.626  0.8875 -0.7859  0.3044
 2982WAT     H2 9349   0.606   6.259   3.719  0.2055  0.2914 -0.6834
 2983WAT      O 9350   3.021   2.101   6.163 -0.0048  0.0447 -0.0399
 2983WAT     H1 9351   3.043   2.012   6.190 -0.9361 -0.0414  0.5020
 2983WAT     H2 9352   2.926   2.107   6.177  0.2883  1.6805  1.6498
 2984WAT      O 9353   6.337   4.330   5.127 -0.2123 -0.9401 -0.0193
 2984WAT     H1 9354   6.427   4.314   5.155  0.2325 -0.3636 -1.0250
 2984WAT     H2 9355   6.319   4.420   5.156 -0.9691 -1.5247  1.3845
 2985WAT      O 9356   0.039   6.180   1.648  0.2449  0.0862  0.0741
 2985WAT     H1 9357   0.099   6.229   1.594 -0.7610  0.3928 -0.8039
 2985WAT     H2 9358   0.007   6.110   1.591 -0.4888  0.1419  0.3992
 2986WAT      O 9359   7.576   6.708   3.650  0.2271  0.4148  0.0094
 2986WAT     H1 9360   7.548   6.795   3.621 -0.7882  0.1887  0.2663
 2986WAT     H2 9361   7.497   6.668   3.686  0.8565 -0.3290  0.6028
 2987WAT      O 9362   6.443   6.658   0.837  0.0107 -0.5575  0.2739
 2987WAT     H1 9363   6.416   6.641   0.928  2.5945  0.0401  1.2452
 2987WAT     H2 9364   6.524   6.707   0.845  1.0932 -1.7213 -2.3658
 2988WAT      O 9365   1.608   4.059   4.487 -0.2134 -0.4438  0.1526
 2988WAT     H1 9366   1.513   4.064   4.496 -0.3131 -0.5853 -0.7477
 2988WAT     H2 9367   1.638   4.019   4.568 -0.5274  3.1488  2.2587
 2989WAT      O 9368   3.018   6.510   5.319 -0.1182 -0.2678 -0.5455
 2989WAT     H1 9369   3.080   6.458   5.371 -1.4565 -1.4587 -0.0889
 2989WAT     H2 9370   3.010   6.592   5.367  1.4464  0.0965 -0.8621
 2990WAT      O 9371   2.015   0.485   5.830 -0.6838  0.0833  0.0509
 2990WAT     H1 9372   2.036   0.408   5.883 -2.0680  0.5651  1.3747
 2990WAT     H2 9373   2.020   0.454   5.739  0.9321 -0.9806  0.4601
 2991WAT      O 9374   3.960   0.640   1.501 -0.6910  0.0675  0.1272
 2991WAT     H1 9375   4.015   0.652   1.578 -3.0900 -1.9586  2.3624
 2991WAT     H2 9376   3.918   0.725   1.488  2.9101  1.7646 -1.8390
 2992WAT      O 9377   7.630   4.829   4.121  0.0031 -0.3077 -0.0869
 2992WAT     H1 9378   7.724   4.834   4.104 -0.6616  1.2151 -4.4378
 2992WAT     H2 9379   7.611   4.910   4.169  1.0469 -1.5939  2.7383
 2993WAT      O 9380   2.381   4.563   2.992 -0.0031 -0.2776 -0.1048
 2993WAT     H1 9381   2.425   4.535   2.912 -0.1436 -0.2423 -0.1952
 2993WAT     H2 9382   2.335   4.484   3.022  0.4274 -0.4167  0.1966
 2994WAT      O 9383   6.269   4.393   6.137  0.0319  0.4140  0.1249
 2994WAT     H1 9384   6.359   4.422   6.121 -0.1504  0.4582 -0.8862
 2994WAT     H2 9385   6.269   4.366   6.229  1.2352 -0.1517 -0.0156
 2995WAT      O 9386   2.589   5.302   1.610  0.4994  0.0544 -0.3858
 2995WAT     H1 9387   2.670   5.268   1.648  0.0623  0.3585  0.8566
 2995WAT     H2 9388   2.618   5.371   1.550  1.1351  0.8694  0.8099
 2996WAT      O 9389   5.273   5.323   0.241 -0.1754 -0.8466  0.3370
 2996WAT     H1 9390   5.230   5.263   0.302 -0.0804 -0.1441  1.1245
 2996WAT     H2 9391   5.216   5.400   0.239  0.8718 -0.0130  1.1930
 2997WAT      O 9392   3.763   3.019   1.497  0.0680 -0.1116  0.3063
 2997WAT     H1 9393   3.785   2.950   1.433 -0.1105  0.0710  0.0459
 2997WAT     H2 9394   3.667   3.023   1.495  0.1192  0.9476 -0.5355
 2998WAT      O 9395   1.132   6.741   3.914  0.2258 -0.7419 -0.1609
 2998WAT     H1 9396   1.111   6.824   3.956 -1.9308 -1.5297  0.4363
 2998WAT     H2 9397   1.138   6.679   3.986 -1.0645 -1.6375 -0.7865
 2999WAT      O 9398   1.540   4.613   1.020  0.0158  0.1039  0.0322
 2999WAT     H1 9399   1.630   4.580   1.026  0.8343  2.1140 -0.4377
 2999WAT     H2 9400   1.511   4.619   1.111 -0.0985 -1.6495  0.1447
 3000WAT      O 9401   0.596   6.159   1.198 -0.0368  0.1907 -0.0908
 3000WAT     H1 9402   0.560   6.091   1.255 -1.8902  0.8564 -0.3952
 3000WAT     H2 9403   0.655   6.209   1.255 -1.4530  0.5350  1.1713
 3001WAT      O 9404   1.049   5.844   4.939  0.2738  0.0826  0.2113
 3001WAT     H1 9405   1.126   5.864   4.992 -0.6475  0.8633  1.2950
 3001WAT     H2 9406   1.081   5.782   4.873  1.7145  0.0248  0.9243
 3002WAT      O 9407   7.484   6.924   5.266  0.1930  0.2186 -0.5690
 3002WAT     H1 9408   7.563   6.954   5.222  0.6960  1.7704  1.2825
 3002WAT     H2 9409   7.467   6.990   5.333 -1.1891 -1.4254  0.7914
 3003WAT      O 9410   2.309   5.650   5.751 -0.1782  0.2292 -0.1409
 3003WAT     H1 9411   2.224   5.607   5.762 -1.0985  1.4337 -1.9992
 3003WAT     H2 9412   2.372   5.589   5.788 -1.5152 -2.2933 -1.7719
 3004WAT      O 9413   1.523   2.437   0.424 -0.2729 -0.0830  0.3196
 3004WAT     H1 9414   1.461   2.504   0.453 -2.1089 -0.4122 -2.5086
 3004WAT     H2 9415   1.527   2.375   0.496 -2.4597  0.5030  1.0162
 3005WAT      O 9416   3.998   0.890   1.152 -0.0239 -0.3632  0.3026
 3005WAT     H1 9417   3.981   0.981   1.129 -0.3624 -0.4376  0.2461
 3005WAT     H2 9418   3.950   0.877   1.234  0.9248 -0.1851  0.8932
 3006WAT      O 9419   0.869   5.438   1.872  0.0498  0.2464 -0.4422
 3006WAT     H1 9420   0.812   5.368   1.904  0.8492 -0.5668 -0.7469
 3006WAT     H2 9421   0.897   5.485   1.951 -1.6219  1.1474 -0.3400
 3007WAT      O 9422   0.299   6.701   1.720  0.2443  0.0375 -0.0233
 3007WAT     H1 9423   0.205   6.718   1.709 -0.2899 -1.2786  1.9249
 3007WAT     H2 9424   0.317   6.629   1.659  0.0504  0.4562 -0.5809
 3008WAT      O 9425   1.183   0.700   6.040 -0.1390  0.0204 -0.2665
 3008WAT     H1 9426   1.088   0.690   6.036 -0.3103  1.0594  0.5863
 3008WAT     H2 9427   1.202   0.708   6.134  0.8194 -0.3810 -0.4136
 3009WAT      O 9428   1.960   5.302   4.326  0.6096 -0.1458  0.5724
 3009WAT     H1 9429   2.005   5.375   4.367 -1.5875  0.6999  1.5900
 3009WAT     H2 9430   1.944   5.331   4.236  0.8099  0.1106  0.6185
 3010WAT      O 9431   2.610   7.016   2.131  0.2553  0.4061 -0.0076
 3010WAT     H1 9432   2.657   6.933   2.122 -0.3503 -0.3740  2.9677
 3010WAT     H2 9433   2.544   6.999   2.198 -2.2350  2.3643 -1.7698
 3011WAT      O 9434   2.266   6.115   5.196 -0.0694 -0.1110 -0.1346
 3011WAT     H1 9435   2.290   6.099   5.287 -1.1940 -0.0165  0.1854
 3011WAT     H2 9436   2.346   6.097   5.147  1.3806  2.4167  1.0932
 3012WAT      O 9437   0.700   6.129   0.923 -0.1157  0.0872 -0.6147
 3012WAT     H1 9438   0.791   6.156   0.931 -0.4121  0.8365  0.3456
 3012WAT     H2 9439   0.654   6.176   0.993 -1.2691 -0.1421 -1.1874
 3013WAT      O 9440   5.536   2.159   4.399 -1.0694 -0.7146  0.2644
 3013WAT     H1 9441   5.603   2.227   4.397 -0.3913 -1.3328  1.1898
 3013WAT     H2 9442   5.464   2.197   4.447 -0.6738 -0.6587  0.8196
 3014WAT      O 9443   6.290   5.188   4.109  0.0722 -0.3854 -0.9797
 3014WAT     H1 9444   6.359   5.140   4.062  1.0009  0.4544 -0.5026
 3014WAT     H2 9445   6.247   5.241   4.042  2.5506  2.1818 -0.6989
 3015WAT      O 9446   1.367   0.023   1.923 -0.0504  0.0065 -0.4057
 3015WAT     H1 9447   1.372   0.107   1.878  0.6157 -0.6628 -1.6291
 3015WAT     H2 9448   1.430   0.029   1.995  0.2211  0.4409 -0.6811
 3016WAT      O 9449   5.285   0.024   2.685 -0.3026 -0.2737 -0.2354
 3016WAT     H1 9450   5.265  -0.018   2.601  0.4144 -0.9857 -0.0524
 3016WAT     H2 9451   5.245  -0.033   2.750 -1.5500  0.6896 -0.1058
 3017WAT      O 9452   6.952   4.896   1.945  0.2524  0.0753  0.0485
 3017WAT     H1 9453   6.895   4.843   2.001  0.3916  0.5457  0.6512
 3017WAT     H2 9454   6.951   4.852   1.861  0.4551 -0.9499  0.5654
 3018WAT      O 9455   6.371   6.945   1.312 -0.0404 -0.1048 -0.1882
 3018WAT     H1 9456   6.282   6.969   1.336 -0.2770 -1.6717  0.6800
 3018WAT     H2 9457   6.400   6.887   1.382  0.5389 -2.0726 -1.9277
 3019WAT      O 9458   3.875   6.016   3.833  0.0508 -0.7524  0.0345
 3019WAT     H1 9459   3.821   6.095   3.842 -0.4479 -0.9667 -0.9264
 3019WAT     H2 9460   3.933   6.019   3.909 -0.1958  0.3518  0.2120
 3020WAT      O 9461   4.946   1.951   1.103  0.2801  0.2546  0.1093
 3020WAT     H1 9462   4.966   2.026   1.158 -0.4286 -0.0224  0.7575
 3020WAT     H2 9463   5.015   1.888   1.122  1.2007  0.9303 -0.8504
 3021WAT      O 9464   5.212   6.841   2.618  0.2030 -0.2256 -0.5479
 3021WAT     H1 9465   5.145   6.782   2.654 -0.3804 -1.1658 -2.9607
 3021WAT     H2 9466   5.295   6.797   2.637 -0.1411 -1.0755 -0.9348
 3022WAT      O 9467   3.369   0.013   0.013  0.1019  0.0650  0.9004
 3022WAT     H1 9468   3.336  -0.058   0.067 -1.4400  0.5234  0.6192
 3022WAT     H2 9469   3.329  -0.001  -0.073  0.8669  0.5042  0.4593
 3023WAT      O 9470   0.434   5.773   0.956  0.6638 -0.0332  0.6629
 3023WAT     H1 9471   0.348   5.803   0.985 -0.2549 -1.1404 -0.7326
 3023WAT     H2 9472   0.470   5.727   1.032  0.3442  1.0629  1.4968
 3024WAT      O 9473   0.240   6.474   5.393 -0.0812 -0.3252 -0.4591
 3024WAT     H1 9474   0.218   6.435   5.309 -2.5621 -0.3217  0.1059
 3024WAT     H2 9475   0.155   6.495   5.433  1.0145  0.1185  1.8281
 3025WAT      O 9476   7.606   7.045   5.720  0.0676 -0.5847  0.3464
 3025WAT     H1 9477   7.620   6.951   5.711  0.5782 -0.3323 -2.3069
 3025WAT     H2 9478   7.653   7.084   5.646 -0.2184  1.7633  1.3049
 3026WAT      O 9479   3.328   3.617   3.504  0.5127  0.3785  0.4691
 3026WAT     H1 9480   3.363   3.558   3.571 -0.1356 -0.5977 -0.0302
 3026WAT     H2 9481   3.263   3.564   3.457  1.7617  0.6440 -1.6804
 3027WAT      O 9482   3.913   2.384   1.207 -0.4105 -0.1246 -0.1147
 3027WAT     H1 9483   3.862   2.309   1.237  1.3019 -0.2344  2.8558
 3027WAT     H2 9484   3.991   2.346   1.166 -0.6605  0.0553 -0.7722
 3028WAT      O 9485   6.043   5.870   2.834 -0.0733  0.4282  0.1499
 3028WAT     H1 9486   6.052   5.793   2.890 -2.4145 -0.3777 -0.4772
 3028WAT     H2 9487   6.108   5.932   2.867  0.6419 -1.1274  1.8123
 3029WAT      O 9488   5.759   4.356   4.462  0.1543  0.4167  0.9907
 3029WAT     H1 9489   5.715   4.314   4.535 -1.6430  0.7604  0.1497
 3029WAT     H2 9490   5.820   4.290   4.429 -2.4648 -1.5968 -0.2100
 3030WAT      O 9491   4.710   2.017   4.962  0.4074 -0.0760  0.0269
 3030WAT     H1 9492   4.783   2.009   4.901 -0.0242 -0.4233 -0.4551
 3030WAT     H2 9493   4.743   1.982   5.045  1.4062  1.5700  0.3561
 3031WAT      O 9494   5.340   2.366   1.176  0.0397  0.0470 -0.4253
 3031WAT     H1 9495   5.261   2.399   1.134 -0.0125  0.6099  0.1060
 3031WAT     H2 9496   5.324   2.376   1.270  1.3472  1.6802 -0.3149
 3032WAT      O 9497   6.447   4.986   0.230  0.2267  0.4011  0.1975
 3032WAT     H1 9498   6.524   4.929   0.234 -0.2179 -0.1665  1.2367
 3032WAT     H2 9499   6.375   4.930   0.261 -0.8065  0.6191 -1.7016
 3033WAT      O 9500   6.818   5.934   0.415 -0.3318  0.3570 -0.3767
 3033WAT     H1 9501   6.771   5.989   0.478 -0.1140  0.0671  0.0410
 3033WAT     H2 9502   6.750   5.881   0.374 -0.4812  0.5887 -0.4306
 3034WAT      O 9503   2.608   5.944   1.286  0.1718  0.5014  0.4043
 3034WAT     H1 9504   2.609   6.009   1.356  2.0305 -0.9344  1.8174
 3034WAT     H2 9505   2.528   5.895   1.300 -0.4478  1.4460  0.2910
 3035WAT      O 9506   5.103   5.027   0.906  0.2917  0.4551 -0.4181
 3035WAT     H1 9507   5.173   4.963   0.900  1.9154  1.9294  1.3186
 3035WAT     H2 9508   5.065   5.013   0.993 -0.7045  0.5194 -0.8297
 3036WAT      O 9509   6.128   5.472   4.781  0.0859  0.2892 -0.3006
 3036WAT     H1 9510   6.218   5.491   4.808  1.1222 -0.6835 -2.8518
 3036WAT     H2 9511   6.099   5.404   4.842  0.8501  0.9388  0.8400
 3037WAT      O 9512   4.162   5.734   0.320 -0.0665 -0.4090  0.2737
 3037WAT     H1 9513   4.245   5.763   0.282 -0.4606 -0.4218 -0.6089
 3037WAT     H2 9514   4.148   5.647   0.284 -0.3179 -0.5272  0.6527
 3038WAT      O 9515   0.638   4.289   2.094 -0.5220 -0.6749  0.2324
 3038WAT     H1 9516   0.624   4.342   2.172  1.0445 -0.7637  0.6022
 3038WAT     H2 9517   0.731   4.267   2.096 -0.6393 -1.4231 -1.1918
 3039WAT      O 9518   2.951   1.628   0.918 -0.1036  0.2869  0.1967
 3039WAT     H1 9519   3.004   1.560   0.875  0.2599 -1.2548  2.8701
 3039WAT     H2 9520   3.000   1.709   0.902  1.0145 -0.5126 -0.6443
 3040WAT      O 9521   1.673   0.309   1.582 -0.3659  0.2571  0.5433
 3040WAT     H1 9522   1.638   0.293   1.669 -0.1528  0.5541  0.6821
 3040WAT     H2 9523   1.664   0.403   1.568  0.2501  0.3180  0.5273
 3041WAT      O 9524   0.027   4.212   2.698 -0.6237 -0.4809 -0.0627
 3041WAT     H1 9525   0.045   4.213   2.604  0.0745 -1.3622  0.0533
 3041WAT     H2 9526   0.113   4.216   2.739 -0.9495  2.9193  0.6184
 3042WAT      O 9527   7.604   5.187   4.483  0.0421  0.0183 -0.5721
 3042WAT     H1 9528   7.558   5.158   4.405  0.1580 -2.3031  0.1668
 3042WAT     H2 9529   7.540   5.244   4.528  0.1926  1.8948 -2.5620
 3043WAT      O 9530   0.084   5.547   5.180 -0.3551 -0.1292  0.2199
 3043WAT     H1 9531  -0.011   5.533   5.179 -0.2373 -0.9433  0.0855
 3043WAT     H2 9532   0.110   5.533   5.089 -0.1422  0.3835  0.1995
 3044WAT      O 9533   4.879   0.212   0.175 -0.0737  0.1740 -0.0542
 3044WAT     H1 9534   4.785   0.204   0.192 -0.4041  2.5004 -0.4771
 3044WAT     H2 9535   4.886   0.209   0.080  0.3997 -0.6945 -0.0063
 3045WAT      O 9536   4.678   5.951   0.468 -0.2677 -0.1829 -0.4895
 3045WAT     H1 9537   4.650   5.902   0.391  0.3773 -2.1138  0.4381
 3045WAT     H2 9538   4.759   5.995   0.439 -0.6103 -0.0048 -1.2109
 3046WAT      O 9539   1.030   2.190   4.342 -0.1743  0.1019 -0.3625
 3046WAT     H1 9540   0.989   2.105   4.327 -1.0480  0.2651  0.9139
 3046WAT     H2 9541   1.095   2.198   4.272 -1.2719 -0.8395 -1.5360
 3047WAT      O 9542   6.167   2.291   5.005  0.0444 -0.7544 -0.0372
 3047WAT     H1 9543   6.110   2.255   5.073  0.7191 -1.6131  0.0895
 3047WAT     H2 9544   6.144   2.384   5.002 -1.5819 -1.1351 -0.2188
 3048WAT      O 9545   5.194   1.232   5.613 -0.2327  0.6480  0.2084
 3048WAT     H1 9546   5.266   1.189   5.659 -0.8023  0.9439  1.4319
 3048WAT     H2 9547   5.160   1.164   5.555 -0.0004 -0.0205  0.8239
 3049WAT      O 9548   1.699   6.305   0.158 -0.7500  0.4725  0.1598
 3049WAT     H1 9549   1.635   6.376   0.158 -2.0886 -0.6260  2.2803
 3049WAT     H2 9550   1.693   6.267   0.246  0.0343 -2.1392 -0.8128
 3050WAT      O 9551   0.225   5.433   2.976 -0.3541  0.8030 -0.0898
 3050WAT     H1 9552   0.241   5.456   3.068 -0.3077 -0.5782  0.2709
 3050WAT     H2 9553   0.136   5.397   2.976  0.5707 -1.6830 -0.0463
 3051WAT      O 9554   0.101   2.166   1.327  0.1035 -0.2237 -0.0500
 3051WAT     H1 9555   0.134   2.175   1.238  1.1112 -1.0518  0.2197
 3051WAT     H2 9556   0.007   2.149   1.316  0.3869 -1.2835 -1.0071
 3052WAT      O 9557   5.996   3.821   0.110 -0.1297  0.2051  0.2218
 3052WAT     H1 9558   5.944   3.859   0.181  1.5898 -0.4593  1.9376
 3052WAT     H2 9559   5.947   3.743   0.085 -1.0025  0.6942  0.3514
 3053WAT      O 9560   3.093   7.208   0.388 -0.1731  0.1110  0.2340
 3053WAT     H1 9561   3.018   7.217   0.447 -0.8014  1.5904 -0.7612
 3053WAT     H2 9562   3.165   7.250   0.435 -1.3333  4.0797 -1.1439
 3054WAT      O 9563   1.091   6.189   1.618  0.3627  0.5915  0.3492
 3054WAT     H1 9564   1.127   6.268   1.657  0.5524  0.7004 -0.0347
 3054WAT     H2 9565   1.139   6.180   1.535  0.0273  0.3257  0.1823
 3055WAT      O 9566   6.900   6.713   1.179 -0.2355  0.2191  0.1926
 3055WAT     H1 9567   6.971   6.701   1.242 -0.5581  1.6563  0.8671
 3055WAT     H2 9568   6.877   6.624   1.151  0.8367 -0.3522  1.0620
 3056WAT      O 9569   6.300   1.667   0.498  0.4410  0.4605  0.4138
 3056WAT     H1 9570   6.376   1.649   0.442  0.2766 -0.3664  0.4382
 3056WAT     H2 9571   6.332   1.731   0.561  1.3707 -0.4484  0.9069
 3057WAT      O 9572   0.331   4.939   2.041  0.0666  0.3107 -0.4057
 3057WAT     H1 9573   0.373   4.931   1.956  1.1161  2.0338 -0.1022
 3057WAT     H2 9574   0.273   5.015   2.032 -0.3019  0.1175  0.2351
 3058WAT      O 9575   6.502   1.164   2.970 -0.2133 -0.1108  0.0501
 3058WAT     H1 9576   6.589   1.130   2.995 -0.5294 -0.3514  0.8662
 3058WAT     H2 9577   6.510   1.259   2.980 -0.7977 -0.2696  2.7982
 3059WAT      O 9578   0.209   6.312   0.514 -0.2262 -0.0873  0.4166
 3059WAT     H1 9579   0.195   6.360   0.596  0.1292  2.0718 -0.7329
 3059WAT     H2 9580   0.301   6.288   0.515 -0.4200 -0.8891  1.0199
 3060WAT      O 9581   5.609   0.553   2.915 -0.8406 -0.3133  0.7567
 3060WAT     H1 9582   5.552   0.530   2.989 -1.1269  0.9549  0.9490
 3060WAT     H2 9583   5.612   0.649   2.916  2.7161 -0.2938  1.8614
 3061WAT      O 9584   3.653   0.429   2.208 -0.7516 -0.1709 -0.8694
 3061WAT     H1 9585   3.748   0.415   2.212 -0.7344 -0.4100 -1.8900
 3061WAT     H2 9586   3.615   0.349   2.245 -0.5583 -0.2658 -0.8773
 3062WAT      O 9587   4.626   6.973   3.862  0.6281 -0.2652  1.0077
 3062WAT     H1 9588   4.697   6.994   3.922  1.0868  0.1644  0.3274
 3062WAT     H2 9589   4.562   7.042   3.876  0.5229 -0.4219  1.3223
 3063WAT      O 9590   1.017   0.244   1.206  0.3437 -0.1808 -0.2567
 3063WAT     H1 9591   1.008   0.332   1.244 -1.0956 -0.9280  1.2516
 3063WAT     H2 9592   1.052   0.191   1.277  1.8763 -0.7393 -1.3650
 3064WAT      O 9593   5.639   5.230   0.753 -0.9402  0.0555  0.7452
 3064WAT     H1 9594   5.587   5.157   0.786  0.6780 -2.3716 -1.6161
 3064WAT     H2 9595   5.657   5.283   0.830 -3.9375 -0.8532  2.2070
 3065WAT      O 9596   1.677   2.715   1.010  0.2853  0.5624  0.1077
 3065WAT     H1 9597   1.585   2.688   1.011 -0.1286  1.8552 -0.3662
 3065WAT     H2 9598   1.726   2.634   1.022 -0.9424 -0.0113  1.6711
 3066WAT      O 9599   4.406   2.584   0.230  0.8056 -0.0267 -0.0446
 3066WAT     H1 9600   4.402   2.505   0.177  1.7398 -0.2700  0.2336
 3066WAT     H2 9601   4.463   2.562   0.303 -0.2908  0.3658  0.9738
 3067WAT      O 9602   5.527   0.121   1.693 -0.4553 -0.3596  0.0176
 3067WAT     H1 9603   5.604   0.101   1.747 -0.1150 -0.1942 -0.4025
 3067WAT     H2 9604   5.563   0.161   1.614 -0.9863 -0.1316 -0.1125
 3068WAT      O 9605   2.234   1.856   0.768  0.6013  0.3044 -0.6065
 3068WAT     H1 9606   2.238   1.809   0.852  0.2242 -1.6049 -1.5867
 3068WAT     H2 9607   2.280   1.799   0.707  0.0277  1.1827 -1.8965
 3069WAT      O 9608   1.609   7.085   2.318 -0.0203 -0.3245  0.0574
 3069WAT     H1 9609   1.564   7.062   2.400  0.3542 -0.4020  0.2461
 3069WAT     H2 9610   1.564   7.034   2.251  0.6340 -1.4370  0.4329
 3070WAT      O 9611   0.708   2.891   0.988 -0.2850 -0.0870  0.1067
 3070WAT     H1 9612   0.661   2.944   1.052  1.5306  2.1081 -0.2281
 3070WAT     H2 9613   0.792   2.872   1.029 -0.6568 -2.2843 -0.0365
 3071WAT      O 9614   6.418   0.215   2.435  0.9413 -0.2924 -0.0927
 3071WAT     H1 9615   6.453   0.165   2.361  0.8325 -1.7002  0.7730
 3071WAT     H2 9616   6.489   0.216   2.499  0.0382 -1.7251  0.9945
 3072WAT      O 9617   2.478   5.394   1.848 -0.0017  0.0714  0.3130
 3072WAT     H1 9618   2.521   5.358   1.770  0.5519  0.1614  0.5717
 3072WAT     H2 9619   2.388   5.362   1.843  0.4731 -1.3572  0.5451
 3073WAT      O 9620   5.157   3.788   2.295  0.1916  0.1568  0.4772
 3073WAT     H1 9621   5.244   3.776   2.255 -0.1481 -0.0613 -0.2030
 3073WAT     H2 9622   5.161   3.875   2.334  1.3399 -0.5337  2.0496
 3074WAT      O 9623   3.847   1.930   5.922  0.2958  0.0633 -0.4626
 3074WAT     H1 9624   3.764   1.890   5.947  0.4775  0.3319  0.6635
 3074WAT     H2 9625   3.838   2.022   5.946  0.6281  0.2574 -1.0769
 3075WAT      O 9626   2.906   4.479   4.018  0.5506  0.3268  0.3144
 3075WAT     H1 9627   2.865   4.402   4.058 -0.1665 -0.3036 -1.5483
 3075WAT     H2 9628   2.834   4.539   4.000  1.2000  2.0052  2.7238
 3076WAT      O 9629   1.827   3.987   4.325 -0.0145 -0.0507  0.3912
 3076WAT     H1 9630   1.851   3.897   4.348  0.5355  0.2339  0.9718
 3076WAT     H2 9631   1.772   4.016   4.397  0.3974  0.3132  0.5654
 3077WAT      O 9632   6.618   7.149   4.189  0.0234 -0.4455  0.0503
 3077WAT     H1 9633   6.624   7.102   4.105  0.0356 -1.3633  0.5462
 3077WAT     H2 9634   6.592   7.081   4.252  1.5514 -0.1072  1.0890
 3078WAT      O 9635   1.146   7.020   3.738 -0.2346  0.5396  0.2421
 3078WAT     H1 9636   1.108   6.974   3.813  0.1339 -0.5145 -0.1976
 3078WAT     H2 9637   1.210   7.080   3.777 -0.0636  0.0169  0.7898
 3079WAT      O 9638   2.751   0.042   1.788  0.1417 -1.0825 -0.5182
 3079WAT     H1 9639   2.812   0.002   1.851 -0.8176  0.0590  1.2178
 3079WAT     H2 9640   2.671   0.057   1.838  0.2547  2.4774 -1.1463
 3080WAT      O 9641   7.178   1.242   3.370 -0.0266  0.4510  0.1478
 3080WAT     H1 9642   7.220   1.276   3.291 -0.6812  0.1886 -0.3226
 3080WAT     H2 9643   7.240   1.178   3.405  0.0256  0.1577 -0.4657
 3081WAT      O 9644   1.042   4.434   5.436  0.6009 -0.0357 -0.0713
 3081WAT     H1 9645   0.965   4.486   5.460 -0.8039 -2.4179  0.8599
 3081WAT     H2 9646   1.092   4.427   5.517  2.6702  2.6450 -0.9527
 3082WAT      O 9647   0.366   4.191   5.210  0.3257  0.0531  0.4923
 3082WAT     H1 9648   0.404   4.204   5.123  0.4209 -0.3531  0.4713
 3082WAT     H2 9649   0.361   4.279   5.247  1.8768  0.0517  0.7435
 3083WAT      O 9650   1.141   3.661   5.084 -0.0239 -0.0503  0.7897
 3083WAT     H1 9651   1.168   3.588   5.030  0.7597 -0.8426  2.1834
 3083WAT     H2 9652   1.222   3.692   5.125 -0.8348 -0.9224  3.2030
 3084WAT      O 9653   0.296   3.566   1.675 -0.5270  0.4011  0.2222
 3084WAT     H1 9654   0.244   3.571   1.595 -0.8320  0.8763  0.4524
 3084WAT     H2 9655   0.255   3.496   1.726  0.0119 -0.2986 -0.2767
 3085WAT      O 9656   3.557   3.144   3.190 -0.2297 -0.1833 -0.3618
 3085WAT     H1 9657   3.599   3.067   3.228  0.2600  0.0582 -0.4037
 3085WAT     H2 9658   3.469   3.145   3.229  0.7643  0.9730  2.0584
 3086WAT      O 9659   7.466   5.178   4.815 -0.7112  0.8643  0.2222
 3086WAT     H1 9660   7.522   5.102   4.833 -0.1454  0.9769 -0.9879
 3086WAT     H2 9661   7.381   5.155   4.853 -0.4973 -0.3054  0.0265
 3087WAT      O 9662   3.427   2.559   4.501  0.4267 -0.4795  0.3788
 3087WAT     H1 9663   3.491   2.565   4.429 -1.0775 -1.1038 -1.0774
 3087WAT     H2 9664   3.379   2.642   4.498  0.3939 -0.4878  0.6929
 3088WAT      O 9665   6.736   4.230   1.608 -0.2680 -0.0523 -0.2777
 3088WAT     H1 9666   6.830   4.243   1.615 -0.2389  0.2177 -1.0577
 3088WAT     H2 9667   6.703   4.314   1.575 -0.8504  0.0266  0.4688
 3089WAT      O 9668   3.893   6.094   5.387 -0.1862  0.3803 -0.2580
 3089WAT     H1 9669   3.960   6.074   5.453  0.5848  2.3805 -0.3793
 3089WAT     H2 9670   3.810   6.084   5.435  0.3430  1.4035  0.9510
 3090WAT      O 9671   3.070   1.119   4.662 -0.1685  0.3211 -0.2067
 3090WAT     H1 9672   3.150   1.164   4.634  0.7502 -0.0013  1.7087
 3090WAT     H2 9673   3.094   1.078   4.746 -2.1999 -0.2189  0.1604
 3091WAT      O 9674   5.439   3.345   0.986 -0.2924 -0.2435 -0.0392
 3091WAT     H1 9675   5.440   3.253   0.958 -0.6336 -0.5482  0.8949
 3091WAT     H2 9676   5.499   3.348   1.061  3.1062  1.1901 -2.5489
 3092WAT      O 9677   7.391   4.020   1.521 -0.3678 -0.1235  0.4387
 3092WAT     H1 9678   7.408   4.109   1.551 -0.9273 -0.3496  1.4825
 3092WAT     H2 9679   7.403   3.966   1.598  1.5112 -1.1735 -0.5339
 3093WAT      O 9680   4.935   5.122   3.083  0.6080 -0.4577  0.5800
 3093WAT     H1 9681   4.976   5.157   3.163  0.0939  1.9617 -0.1149
 3093WAT     H2 9682   4.945   5.027   3.090  1.3270 -0.2733  3.1019
 3094WAT      O 9683   7.397   0.273   4.864  0.4586  0.0863  0.1334
 3094WAT     H1 9684   7.407   0.273   4.959  2.1653 -0.6155 -0.0112
 3094WAT     H2 9685   7.373   0.363   4.842  2.6388  0.9508  1.0350
 3095WAT      O 9686   3.810   5.978   1.889  0.1186 -0.2801  0.1168
 3095WAT     H1 9687   3.839   6.067   1.909 -1.5485  1.0734 -2.8661
 3095WAT     H2 9688   3.715   5.982   1.890 -0.0054 -2.1109  0.0560
 3096WAT      O 9689   0.067   2.799   5.572 -0.1713 -0.8283  0.3926
 3096WAT     H1 9690   0.034   2.880   5.531  1.2236 -0.1076  0.6514
 3096WAT     H2 9691  -0.005   2.771   5.629 -2.0383 -1.6770 -2.1896
 3097WAT      O 9692   2.132   4.192   1.237 -0.3045 -0.0710  0.3778
 3097WAT     H1 9693   2.039   4.212   1.247 -0.4743  0.0228 -1.0845
 3097WAT     H2 9694   2.135   4.097   1.228 -0.6466  0.0928 -2.4559
 3098WAT      O 9695   2.853   4.421   6.078  0.0765  0.2829  0.1302
 3098WAT     H1 9696   2.792   4.349   6.095  0.7284 -0.1297  0.7702
 3098WAT     H2 9697   2.823   4.459   5.996 -0.8331 -0.1334  0.2580
 3099WAT      O 9698   4.988   6.639   5.778 -0.7254 -0.5643 -0.2498
 3099WAT     H1 9699   5.039   6.670   5.703 -0.6304  0.5846  0.2723
 3099WAT     H2 9700   5.006   6.702   5.847  0.2119 -2.3126  1.1799
 3100WAT      O 9701   7.638   6.163   0.461  0.2107 -0.3387  0.4450
 3100WAT     H1 9702   7.728   6.192   0.473 -0.3715  1.1195  1.5589
 3100WAT     H2 9703   7.589   6.206   0.531 -1.5745 -0.0264 -0.9209
 3101WAT      O 9704   4.759   3.401   0.881  0.7009  0.1991  0.4153
 3101WAT     H1 9705   4.774   3.425   0.973 -1.7554  1.0416  0.6557
 3101WAT     H2 9706   4.720   3.314   0.884 -1.6811  1.2086  0.4000
 3102WAT      O 9707   5.447   4.614   2.046  0.0946 -0.0254 -0.5223
 3102WAT     H1 9708   5.537   4.625   2.016  0.1702  0.5444 -0.1039
 3102WAT     H2 9709   5.443   4.522   2.073 -0.1534 -0.7394 -2.7793
 3103WAT      O 9710   4.541   5.958   5.667  0.4665  1.0494 -0.1636
 3103WAT     H1 9711   4.527   5.997   5.753 -0.8077 -0.8983  0.5621
 3103WAT     H2 9712   4.473   5.996   5.611  0.0017  0.7799  0.2197
 3104WAT      O 9713   7.126   0.466   6.178 -0.2835 -0.2836 -0.2019
 3104WAT     H1 9714   7.146   0.556   6.151 -1.3341 -0.1351 -0.5137
 3104WAT     H2 9715   7.069   0.475   6.254  1.1603 -0.7071  0.9721
 3105WAT      O 9716   0.183   6.585   3.595 -0.1303  0.4782  0.1865
 3105WAT     H1 9717   0.152   6.542   3.516 -0.0239  1.5193 -0.4441
 3105WAT     H2 9718   0.105   6.629   3.630  0.0127  0.7331  0.1839
 3106WAT      O 9719   5.618   5.517   5.909 -0.5029 -0.3768 -0.7512
 3106WAT     H1 9720   5.607   5.612   5.914  0.7091 -0.1668 -1.5700
 3106WAT     H2 9721   5.711   5.502   5.927 -0.0384 -1.1162 -3.3331
 3107WAT      O 9722   4.838   3.451   2.420  0.9061  0.4393 -0.1534
 3107WAT     H1 9723   4.746   3.435   2.438  1.0074  0.1669  0.1328
 3107WAT     H2 9724   4.842   3.542   2.390  0.8873  1.3786  2.4547
 3108WAT      O 9725   1.426   0.989   0.245  0.0179 -0.7718 -0.2275
 3108WAT     H1 9726   1.419   0.906   0.293 -2.2264 -0.6758 -0.3013
 3108WAT     H2 9727   1.388   1.054   0.304 -0.6035 -0.2387 -1.1970
 3109WAT      O 9728   0.615   5.143   3.373 -0.9716 -0.2504  0.5245
 3109WAT     H1 9729   0.567   5.096   3.442 -0.2797 -1.4051  0.2421
 3109WAT     H2 9730   0.706   5.118   3.386 -0.9072 -1.0488 -1.2184
 3110WAT      O 9731   3.635   5.481   5.155 -0.4817 -0.5366 -0.0496
 3110WAT     H1 9732   3.707   5.529   5.115 -1.5826  0.6094 -0.7078
 3110WAT     H2 9733   3.643   5.392   5.120  0.7405 -0.4925  0.0843
 3111WAT      O 9734   2.591   5.703   2.188  0.5690 -0.0013  0.2621
 3111WAT     H1 9735   2.546   5.773   2.236 -1.4896  0.0776 -1.6283
 3111WAT     H2 9736   2.563   5.622   2.230  0.0461  0.1413  0.1911
 3112WAT      O 9737   5.429   2.110   1.503  0.4274 -0.4580  0.5618
 3112WAT     H1 9738   5.465   2.025   1.528  1.7253 -0.1060 -0.0284
 3112WAT     H2 9739   5.504   2.169   1.505 -0.5357  0.7854  1.4100
 3113WAT      O 9740   5.043   2.748   0.986 -0.5547 -0.3077 -0.5112
 3113WAT     H1 9741   5.029   2.753   0.891 -0.3037 -2.5937 -0.7055
 3113WAT     H2 9742   4.965   2.707   1.021  0.2302 -1.4153 -0.0027
 3114WAT      O 9743   4.383   1.342   1.268 -0.0286  0.2504  0.6365
 3114WAT     H1 9744   4.440   1.323   1.341 -0.3683  0.8728  1.0774
 3114WAT     H2 9745   4.429   1.410   1.218 -0.5580  1.0809  1.2405
 3115WAT      O 9746   4.850   2.180   0.335  0.3289 -0.0664 -0.1919
 3115WAT     H1 9747   4.930   2.157   0.288 -1.6099 -1.7143 -3.0854
 3115WAT     H2 9748   4.845   2.275   0.329  1.7029 -0.0005 -0.6236
 3116WAT      O 9749   5.985   4.100   2.139  0.0626  0.0796  0.2847
 3116WAT     H1 9750   6.039   4.024   2.162  2.2292  1.3882 -0.2221
 3116WAT     H2 9751   5.957   4.135   2.223  1.2202  0.1923  0.6434
 3117WAT      O 9752   3.830   1.471   2.096  0.5860  0.1946  0.1471
 3117WAT     H1 9753   3.754   1.491   2.150  0.5965  0.9613 -0.1056
 3117WAT     H2 9754   3.801   1.487   2.006  0.8137 -0.2597 -0.0076
 3118WAT      O 9755   1.426   2.992   1.314 -0.1336 -0.3291 -0.5927
 3118WAT     H1 9756   1.486   3.030   1.378  0.0993 -1.4651 -0.1109
 3118WAT     H2 9757   1.345   3.043   1.322  0.5606  0.8483 -0.8472
 3119WAT      O 9758   3.140   4.150   0.896 -0.5242  0.1462 -0.8087
 3119WAT     H1 9759   3.199   4.077   0.878  1.4286  1.4419  0.0116
 3119WAT     H2 9760   3.101   4.129   0.981  0.6985  0.4273 -0.1559
 3120WAT      O 9761   3.419   6.420   2.199  0.0593 -0.4694 -0.9421
 3120WAT     H1 9762   3.449   6.389   2.113  0.3852 -0.9223 -0.6709
 3120WAT     H2 9763   3.381   6.343   2.240 -1.8335  0.1684 -1.4095
 3121WAT      O 9764   4.046   1.629   5.626 -0.3250 -0.8966  0.0724
 3121WAT     H1 9765   4.123   1.657   5.576 -2.0802  1.9472 -1.2334
 3121WAT     H2 9766   4.051   1.680   5.707 -0.3088 -1.5529  0.4994
 3122WAT      O 9767   7.217   1.790   5.041  0.8473 -0.5969  0.0803
 3122WAT     H1 9768   7.198   1.881   5.018  0.1956 -1.0441 -1.2739
 3122WAT     H2 9769   7.185   1.781   5.131  1.8480  0.7624  0.6094
 3123WAT      O 9770   4.307   5.197   5.091  0.1498  0.2572  0.4907
 3123WAT     H1 9771   4.348   5.275   5.127 -2.0234  0.6698  2.3435
 3123WAT     H2 9772   4.266   5.154   5.167 -0.0432 -1.8464 -0.7157
 3124WAT      O 9773   6.961   5.208   4.121 -0.6727  1.0243 -0.2889
 3124WAT     H1 9774   6.869   5.183   4.135  0.4907 -2.6897  2.1436
 3124WAT     H2 9775   7.000   5.209   4.208  2.0903  0.1062 -1.3927
 3125WAT      O 9776   5.029   5.177   3.325 -0.2583 -0.2961 -0.4348
 3125WAT     H1 9777   5.118   5.164   3.357 -0.3214 -1.1073 -0.5736
 3125WAT     H2 9778   5.020   5.272   3.318  0.2842 -0.1671  0.4516
 3126WAT      O 9779   4.962   4.841   5.717 -0.4643 -0.4185 -0.2736
 3126WAT     H1 9780   4.917   4.926   5.721 -1.5433 -0.9695 -0.3029
 3126WAT     H2 9781   4.892   4.777   5.722  0.3230 -1.3191 -0.5072
 3127WAT      O 9782   4.351   0.108   2.019  0.6293  0.1459  0.3377
 3127WAT     H1 9783   4.404   0.140   2.092 -2.2879  1.0020  2.2448
 3127WAT     H2 9784   4.382   0.018   2.005  1.5302  0.0732  2.3697
 3128WAT      O 9785   7.144   6.691   1.440  0.5078 -0.5493 -0.6036
 3128WAT     H1 9786   7.206   6.654   1.503  0.8267 -0.8727 -1.1082
 3128WAT     H2 9787   7.102   6.762   1.488 -0.8926 -2.2030  0.7878
 3129WAT      O 9788   1.261   6.903   1.925  0.4706  0.5526  0.4251
 3129WAT     H1 9789   1.205   6.973   1.890  0.0798  0.6360  1.1979
 3129WAT     H2 9790   1.201   6.842   1.967  0.8081 -0.2663 -0.2426
 3130WAT      O 9791   7.329   5.924   5.195 -0.1333 -0.2892  0.0013
 3130WAT     H1 9792   7.340   5.967   5.110 -0.5770 -0.1794 -0.0033
 3130WAT     H2 9793   7.240   5.889   5.192 -0.5159  0.5904  0.8214
 3131WAT      O 9794   0.350   7.078   1.919  0.0569  0.2635  0.2773
 3131WAT     H1 9795   0.293   7.150   1.891  0.6326  1.7410  2.6277
 3131WAT     H2 9796   0.379   7.038   1.837 -0.5511  2.4906 -1.1230
 3132WAT      O 9797   6.775   4.784   3.500 -0.2409  0.2570 -0.5819
 3132WAT     H1 9798   6.703   4.722   3.487 -0.6824  0.5582  0.3579
 3132WAT     H2 9799   6.767   4.812   3.591  0.7897  0.6513 -0.5967
 3133WAT      O 9800   3.374   3.178   6.149  0.2432 -0.1776 -0.1929
 3133WAT     H1 9801   3.410   3.102   6.193 -0.7590 -0.2797  0.4748
 3133WAT     H2 9802   3.340   3.144   6.066  1.9236 -0.0231 -0.9895
 3134WAT      O 9803   7.148   5.899   5.732 -0.4629  0.0951 -0.1183
 3134WAT     H1 9804   7.199   5.897   5.813 -0.4120  0.4460 -0.1424
 3134WAT     H2 9805   7.077   5.836   5.747 -0.1200 -0.2755 -0.0247
 3135WAT      O 9806   1.828   6.479   1.306 -0.4517 -0.1172  0.1394
 3135WAT     H1 9807   1.920   6.476   1.332 -0.3011  1.8041 -0.0234
 3135WAT     H2 9808   1.793   6.555   1.354 -1.9426 -0.8052  0.1695
 3136WAT      O 9809   5.429   6.743   2.170 -0.5428 -0.1171 -0.7602
 3136WAT     H1 9810   5.429   6.687   2.248 -0.4823 -1.1303 -1.4690
 3136WAT     H2 9811   5.505   6.800   2.182 -0.1332 -0.7273 -0.3969
 3137WAT      O 9812   2.103   6.233   2.834  0.2847  0.2178  0.2198
 3137WAT     H1 9813   2.040   6.252   2.903  0.4322 -1.2341  0.7902
 3137WAT     H2 9814   2.185   6.273   2.864  0.3450 -0.3905  0.8875
 3138WAT      O 9815   3.391   5.434   4.088 -1.0426 -0.0209 -0.4373
 3138WAT     H1 9816   3.337   5.400   4.160  1.9050 -0.8254  1.5850
 3138WAT     H2 9817   3.466   5.474   4.132  0.5645  0.0901 -3.0969
 3139WAT      O 9818   4.543   3.049   2.165  0.2706  0.2058 -0.0488
 3139WAT     H1 9819   4.558   3.109   2.238  0.6590  0.4620 -0.3375
 3139WAT     H2 9820   4.466   3.083   2.121 -1.6390 -1.4365  1.7782
 3140WAT      O 9821   0.688   3.057   5.976 -0.6138  0.0179  0.5115
 3140WAT     H1 9822   0.745   2.994   6.021  0.7489  0.4779 -0.5023
 3140WAT     H2 9823   0.656   3.114   6.046 -0.4076 -0.6828  1.1999
 3141WAT      O 9824   5.079   4.002   3.845  0.5612 -0.3637 -0.6494
 3141WAT     H1 9825   5.028   4.039   3.773  0.5836  2.6214  0.7337
 3141WAT     H2 9826   5.169   4.026   3.825  0.7617 -0.8324 -0.3412
 3142WAT      O 9827   1.477   6.475   5.002  0.6901  0.1201 -0.2278
 3142WAT     H1 9828   1.460   6.471   4.908  0.4139  3.0092 -0.4044
 3142WAT     H2 9829   1.411   6.418   5.041 -0.1459  0.0290 -1.6993
 3143WAT      O 9830   1.210   7.148   4.142  0.2187  0.1770  0.2990
 3143WAT     H1 9831   1.227   7.237   4.171  2.0772 -0.2895  0.7422
 3143WAT     H2 9832   1.204   7.097   4.222  1.2568 -0.4211  0.0194
 3144WAT      O 9833   0.040   2.852   3.883  0.0742  0.5466 -0.6779
 3144WAT     H1 9834   0.009   2.790   3.949  0.7339 -0.5656 -1.3822
 3144WAT     H2 9835  -0.039   2.881   3.838 -0.3803  1.2893  0.5460
 3145WAT      O 9836   3.146   5.093   3.232  0.3438  0.1141 -0.2528
 3145WAT     H1 9837   3.107   5.027   3.289  1.0537 -1.6631 -1.7307
 3145WAT     H2 9838   3.072   5.144   3.200 -0.7571 -2.4042 -2.0342
 3146WAT      O 9839   6.485   4.307   3.653  0.7459 -0.2817  0.5236
 3146WAT     H1 9840   6.402   4.276   3.617  0.0178  2.0630  0.0351
 3146WAT     H2 9841   6.518   4.233   3.704 -0.7262 -1.8971 -0.7512
 3147WAT      O 9842   7.195   5.359   5.450 -0.1320  0.5461 -0.4280
 3147WAT     H1 9843   7.265   5.419   5.476 -0.9161  0.6171  1.6612
 3147WAT     H2 9844   7.115   5.412   5.454 -0.4878  0.1173 -1.4900
 3148WAT      O 9845   6.873   7.024   4.033 -0.3902 -0.3218 -0.4793
 3148WAT     H1 9846   6.873   6.962   3.960  1.0976 -2.0156  0.8513
 3148WAT     H2 9847   6.813   6.984   4.097 -1.7877  1.2096 -0.7777
 3149WAT      O 9848   5.552   2.936   0.050 -0.0335  0.1368  0.7387
 3149WAT     H1 9849   5.541   3.027   0.024  0.0815  0.7656  2.6838
 3149WAT     H2 9850   5.587   2.941   0.139 -1.4652 -1.7930  1.4832
 3150WAT      O 9851   7.451   4.225   2.219  0.1249 -0.1176 -0.1822
 3150WAT     H1 9852   7.365   4.248   2.256  1.2526  1.9519  1.3740
 3150WAT     H2 9853   7.495   4.309   2.206  1.7195 -1.0946 -1.5134
 3151WAT      O 9854   1.445   3.169   4.444  0.5762 -0.1320 -0.8351
 3151WAT     H1 9855   1.482   3.257   4.452  0.6303 -0.1886 -0.4602
 3151WAT     H2 9856   1.518   3.114   4.417  1.1514 -0.5231  1.3139
 3152WAT      O 9857   2.580   0.282   5.928 -0.2740  0.3817 -0.4446
 3152WAT     H1 9858   2.647   0.333   5.975 -0.0760 -0.6854  0.4814
 3152WAT     H2 9859   2.507   0.277   5.990 -1.1186  1.2829 -1.3383
 3153WAT      O 9860   0.091   6.943   5.155 -0.4041 -0.0559  0.3387
 3153WAT     H1 9861   0.160   6.964   5.218 -0.5732 -0.9000  0.8220
 3153WAT     H2 9862   0.095   7.013   5.091  1.9236 -0.8477 -0.4787
 3154WAT      O 9863   3.141   6.055   0.273  0.9226 -0.0097 -0.5762
 3154WAT     H1 9864   3.075   6.104   0.322  3.2740  1.7520  1.0512
 3154WAT     H2 9865   3.129   6.081   0.182  0.0751  1.1331 -0.1532
 3155WAT      O 9866   0.908   4.025   4.629 -0.2636  0.0954  0.0692
 3155WAT     H1 9867   0.898   4.102   4.685 -1.5351 -1.1288  1.6116
 3155WAT     H2 9868   0.963   3.965   4.680  0.3034 -0.2297 -0.8983
 3156WAT      O 9869   4.604   6.272   1.744 -0.1092  0.2418  0.0152
 3156WAT     H1 9870   4.618   6.248   1.835 -0.2350  0.4189  0.0827
 3156WAT     H2 9871   4.562   6.358   1.748 -0.0572  0.2794 -0.2105
 3157WAT      O 9872   0.578   1.580   0.525  0.3343  0.2634 -0.2064
 3157WAT     H1 9873   0.506   1.637   0.499 -1.8708 -1.9803  0.5653
 3157WAT     H2 9874   0.596   1.603   0.616  1.1043  1.2709 -0.5941
 3158WAT      O 9875   4.896   2.532   3.183  0.1570  0.2443 -0.2797
 3158WAT     H1 9876   4.844   2.492   3.253  0.5686  2.5453  1.4440
 3158WAT     H2 9877   4.841   2.603   3.150  0.6803  0.2771 -1.1172
 3159WAT      O 9878   3.560   7.005   4.714 -0.1965 -0.3567 -0.2474
 3159WAT     H1 9879   3.473   7.040   4.735  0.2939  0.8025 -0.0881
 3159WAT     H2 9880   3.620   7.077   4.734  0.9148 -1.5004  0.6751
 3160WAT      O 9881   0.408   1.301   3.009 -0.1102  0.0276  0.0431
 3160WAT     H1 9882   0.335   1.242   3.026  0.0852 -0.9230 -2.0622
 3160WAT     H2 9883   0.485   1.256   3.043 -0.1311 -0.3651 -0.4205
 3161WAT      O 9884   3.896   6.596   4.912  0.3168 -0.1713 -0.4858
 3161WAT     H1 9885   3.820   6.651   4.930 -0.2905 -1.0387 -0.3758
 3161WAT     H2 9886   3.971   6.650   4.938 -0.4014 -0.8185  3.5553
 3162WAT      O 9887   2.734   6.381   1.732  0.7622  0.2060  0.3346
 3162WAT     H1 9888   2.682   6.381   1.812 -0.3307 -2.2443 -0.2627
 3162WAT     H2 9889   2.770   6.292   1.727  1.4097  0.5317 -1.4878
 3163WAT      O 9890   2.472   5.378   2.116  0.3366 -0.1234  0.0360
 3163WAT     H1 9891   2.542   5.416   2.169 -0.9071 -0.0621  1.7290
 3163WAT     H2 9892   2.489   5.409   2.028  2.3195  0.0412  0.4372
 3164WAT      O 9893   7.006   2.816   3.751  0.3266  0.1390  0.2467
 3164WAT     H1 9894   7.053   2.737   3.778 -0.7370 -0.2372  1.0517
 3164WAT     H2 9895   6.956   2.788   3.673  0.3113  0.1444  0.2547
 3165WAT      O 9896   4.430   5.122   0.368  0.2516 -0.0228  0.0915
 3165WAT     H1 9897   4.337   5.111   0.349  0.0347  1.0952  0.4310
 3165WAT     H2 9898   4.432   5.163   0.455  1.0057  1.1589 -0.4590
 3166WAT      O 9899   1.970   0.159   2.577 -0.3676  0.1178 -0.0115
 3166WAT     H1 9900   2.001   0.104   2.648  0.6694 -1.1467 -1.3797
 3166WAT     H2 9901   2.048   0.204   2.545 -0.8896  0.9903 -0.0882
 3167WAT      O 9902   6.268   0.087   4.586 -0.6309 -0.3433  0.2735
 3167WAT     H1 9903   6.330   0.119   4.520 -0.3210 -1.6032 -0.0872
 3167WAT     H2 9904   6.318   0.086   4.668 -0.8173  0.6086  0.4049
 3168WAT      O 9905   6.684   0.611   3.324 -0.1877  0.2546  0.3034
 3168WAT     H1 9906   6.617   0.677   3.306  0.8577  0.9670 -1.1644
 3168WAT     H2 9907   6.714   0.630   3.412 -0.3510  1.3661  0.1337
 3169WAT      O 9908   4.719   0.852   4.492  0.2468 -0.2040  0.5806
 3169WAT     H1 9909   4.796   0.826   4.542  0.6980  0.0100  0.0039
 3169WAT     H2 9910   4.724   0.947   4.488 -0.4157 -0.1320  1.1124
 3170WAT      O 9911   3.323   1.661   1.758 -0.3402  0.1282  0.2721
 3170WAT     H1 9912   3.231   1.640   1.748 -0.5716  1.0997  0.2661
 3170WAT     H2 9913   3.325   1.756   1.770  0.7236  0.2472 -0.6527
 3171WAT      O 9914   3.295   1.173   4.205 -0.2927  0.1186 -0.0430
 3171WAT     H1 9915   3.343   1.252   4.181 -1.2280  0.6881 -0.0912
 3171WAT     H2 9916   3.334   1.145   4.288  1.6007 -0.7185 -1.1610
 3172WAT      O 9917   5.044   5.527   2.197 -0.4994 -0.5267 -0.1196
 3172WAT     H1 9918   4.959   5.568   2.181  0.9048  2.5880 -0.4870
 3172WAT     H2 9919   5.068   5.554   2.285  0.6181 -0.2489 -0.4866
 3173WAT      O 9920   1.248   3.412   3.464 -0.9558 -0.3940  0.0504
 3173WAT     H1 9921   1.156   3.436   3.457 -1.0678 -1.3075 -2.5256
 3173WAT     H2 9922   1.268   3.369   3.381  1.3481 -1.7801  1.2231
 3174WAT      O 9923   5.336   0.644   0.107 -0.3083  0.1909 -0.6389
 3174WAT     H1 9924   5.333   0.565   0.162 -0.4253  0.5598 -0.0996
 3174WAT     H2 9925   5.401   0.699   0.150 -0.9723  0.8161 -0.4230
 3175WAT      O 9926   5.113   3.452   5.606 -0.1840 -0.4059 -0.0038
 3175WAT     H1 9927   5.099   3.545   5.624 -1.4021 -0.9881  2.5014
 3175WAT     H2 9928   5.034   3.409   5.640  0.6641 -2.4247 -0.4429
 3176WAT      O 9929   6.152   5.719   4.189 -0.0744 -0.0298 -0.3678
 3176WAT     H1 9930   6.094   5.723   4.113  0.4497  2.3849 -0.7017
 3176WAT     H2 9931   6.109   5.773   4.255  1.2298  0.9173 -0.2530
 3177WAT      O 9932   6.838   1.578   2.055  0.0312  0.1404 -0.4197
 3177WAT     H1 9933   6.887   1.540   2.128  0.4947  1.9914  0.2942
 3177WAT     H2 9934   6.757   1.609   2.094  0.7703  2.1874 -0.3884
 3178WAT      O 9935   5.958   3.543   5.110 -0.2020 -0.1221 -0.2271
 3178WAT     H1 9936   5.875   3.584   5.085  0.7872  0.7449 -2.2933
 3178WAT     H2 9937   5.989   3.594   5.185 -0.4695  0.9688 -0.8402
 3179WAT      O 9938   6.325   0.370   2.020 -0.1730 -0.1513 -0.1848
 3179WAT     H1 9939   6.318   0.357   2.115 -0.2659  2.8823  0.3461
 3179WAT     H2 9940   6.356   0.461   2.011  0.1604 -0.4539 -3.0715
 3180WAT      O 9941   0.910   2.425   3.676 -0.9318 -0.0586  0.5175
 3180WAT     H1 9942   0.956   2.500   3.638 -2.5407  0.2756 -0.8685
 3180WAT     H2 9943   0.953   2.411   3.760  0.9706  0.9052 -0.2330
 3181WAT      O 9944   1.713   3.640   4.130 -0.8042  0.5066 -0.2974
 3181WAT     H1 9945   1.680   3.654   4.219 -0.8667 -0.4931 -0.1462
 3181WAT     H2 9946   1.670   3.706   4.077 -0.0370  1.7422  0.5807
 3182WAT      O 9947   2.928   5.908   0.931  0.6731  0.1299 -0.0160
 3182WAT     H1 9948   2.845   5.890   0.886  0.1474  0.7680  0.6601
 3182WAT     H2 9949   2.972   5.823   0.934 -0.3458 -0.4047  0.3586
 3183WAT      O 9950   7.137   1.331   2.549 -0.3804 -0.4445  0.4554
 3183WAT     H1 9951   7.146   1.380   2.631 -1.0364  1.6886 -0.6707
 3183WAT     H2 9952   7.055   1.281   2.559 -1.3808  1.1436  0.4914
 3184WAT      O 9953   4.069   6.210   4.816 -0.4954 -0.1081  0.2380
 3184WAT     H1 9954   4.134   6.279   4.823  0.0298 -0.4505 -1.0331
 3184WAT     H2 9955   3.988   6.249   4.851 -0.1350  1.0227 -0.1628
 3185WAT      O 9956   1.761   1.525   0.062  0.1986 -0.5742  0.2434
 3185WAT     H1 9957   1.854   1.539   0.047 -0.0672  0.7255 -0.3386
 3185WAT     H2 9958   1.751   1.528   0.157  0.5864  0.5160  0.2592
 3186WAT      O 9959   6.103   5.918   0.357  1.0457  0.0524 -0.0215
 3186WAT     H1 9960   6.033   5.983   0.345  0.4009 -0.5955  0.1243
 3186WAT     H2 9961   6.163   5.934   0.284  0.4260  0.2293 -0.5020
 3187WAT      O 9962   0.790   2.663   4.035 -0.3329 -0.8809 -0.1426
 3187WAT     H1 9963   0.773   2.755   4.012  0.2281 -0.8008 -0.2569
 3187WAT     H2 9964   0.768   2.614   3.956  2.9075 -0.4795 -1.4506
 3188WAT      O 9965   4.615   1.031   1.745 -0.0873  0.4194  0.1851
 3188WAT     H1 9966   4.618   1.115   1.792 -0.8442  0.6421 -0.1554
 3188WAT     H2 9967   4.658   0.970   1.805  3.2715  1.5861 -0.7740
 3189WAT      O 9968   7.560   2.365   0.177  0.2379  0.2933  0.5931
 3189WAT     H1 9969   7.515   2.439   0.218  0.5322  0.3603  0.8011
 3189WAT     H2 9970   7.528   2.288   0.225 -1.8228  0.0032 -1.0988
 3190WAT      O 9971   2.125   2.899   4.066  0.3584  0.4649  0.3426
 3190WAT     H1 9972   2.208   2.898   4.113  0.1907  1.5011  0.6839
 3190WAT     H2 9973   2.087   2.812   4.082  0.7385  0.4696  1.3470
 3191WAT      O 9974   1.564   3.778   2.902  0.0799  0.3316 -0.0503
 3191WAT     H1 9975   1.641   3.799   2.851 -0.6223  1.3415 -0.7302
 3191WAT     H2 9976   1.563   3.843   2.972  0.1419 -0.0208  0.2807
 3192WAT      O 9977   4.590   1.203   5.804 -0.2188 -0.4315 -0.4767
 3192WAT     H1 9978   4.582   1.266   5.876 -0.8732 -1.1868  0.1232
 3192WAT     H2 9979   4.547   1.245   5.730 -1.2796 -0.4558  0.1140
 3193WAT      O 9980   2.601   5.447   0.645 -0.4379  0.0715 -0.1371
 3193WAT     H1 9981   2.566   5.486   0.725 -1.0076  0.1071 -0.3987
 3193WAT     H2 9982   2.562   5.498   0.574 -2.6445 -2.0538 -0.5606
 3194WAT      O 9983   2.941   1.392   0.303  0.4336 -0.1738 -0.0590
 3194WAT     H1 9984   2.867   1.386   0.363 -0.6882 -1.5774 -1.4848
 3194WAT     H2 9985   2.992   1.312   0.319  1.4511  0.5897  0.6358
 3195WAT      O 9986   3.066   4.986   1.936  0.5741  0.2774  1.0341
 3195WAT     H1 9987   3.116   4.992   2.017 -0.6447 -0.4900  1.8799
 3195WAT     H2 9988   2.982   5.027   1.957  0.5133  0.7859 -0.0983
 3196WAT      O 9989   3.966   4.052   5.817 -0.4064  0.3428  0.4457
 3196WAT     H1 9990   4.050   4.021   5.852 -0.3484  0.6488  0.5806
 3196WAT     H2 9991   3.957   4.141   5.852 -0.6335  0.4298  0.1667
 3197WAT      O 9992   3.002   2.428   4.865 -0.0848  0.0697  0.2401
 3197WAT     H1 9993   3.036   2.448   4.952 -0.0659  1.8557 -0.1527
 3197WAT     H2 9994   3.030   2.337   4.850 -0.5693 -0.4738  2.2892
 3198WAT      O 9995   3.856   5.991   2.973  0.6197  0.2036  0.2910
 3198WAT     H1 9996   3.769   5.957   2.992  0.1191  0.2189 -1.7472
 3198WAT     H2 9997   3.890   6.020   3.058  0.0979 -3.0338  1.7452
 3199WAT      O 9998   6.577   4.274   0.304 -0.3137 -0.5545  0.3838
 3199WAT     H1 9999   6.639   4.203   0.321 -0.1614 -0.6462 -0.5038
 3199WAT     H210000   6.514   4.268   0.376 -0.2134 -1.4890  0.4078
 3200WAT      O10001   2.261   1.242   3.582 -0.8157  0.1590  0.1885
 3200WAT     H110002   2.327   1.306   3.556  1.0129 -1.4662  0.5405
 3200WAT     H210003   2.259   1.247   3.678 -1.7061  0.6598  0.1480
 3201WAT      O10004   5.524   5.569   4.420 -0.1660  0.2429 -0.1939
 3201WAT     H110005   5.593   5.514   4.456 -0.1145  0.1886 -0.3752
 3201WAT     H210006   5.498   5.625   4.493 -0.8576 -0.6420  0.2713
 3202WAT      O10007   3.183   2.653   3.705  0.2011  0.2043  0.1871
 3202WAT     H110008   3.153   2.563   3.720  0.6235  0.1249  0.5899
 3202WAT     H210009   3.169   2.697   3.788  2.9721 -0.3615  1.0615
 3203WAT      O10010   4.806   2.006   1.854 -0.0390  0.7568  0.0708
 3203WAT     H110011   4.745   1.958   1.798  0.2256  0.1143  0.3299
 3203WAT     H210012   4.755   2.081   1.884 -2.1938 -1.7953  3.5759
 3204WAT      O10013   7.075   3.850   5.280 -0.7670  0.6196 -0.7235
 3204WAT     H110014   7.018   3.843   5.204 -2.1963 -2.6422  0.4610
 3204WAT     H210015   7.020   3.888   5.349 -0.7695 -0.1960 -0.2594
 3205WAT      O10016   6.400   1.071   0.277 -0.5915  0.3632 -0.6039
 3205WAT     H110017   6.418   0.977   0.274 -0.0789  0.4545 -3.2850
 3205WAT     H210018   6.478   1.109   0.318 -0.1999 -0.2669 -0.7594
 3206WAT      O10019   3.867   2.696   2.183  0.2856  0.0494 -0.1808
 3206WAT     H110020   3.878   2.703   2.088 -2.5952  1.0986 -0.5331
 3206WAT     H210021   3.786   2.646   2.194  0.8660 -0.5505  1.7622
 3207WAT      O10022   5.200   7.014   0.408 -0.0555 -0.2087  0.6607
 3207WAT     H110023   5.153   6.980   0.332  0.6111  1.7044 -0.6558
 3207WAT     H210024   5.137   7.004   0.480 -0.6355 -2.2077 -0.0366
 3208WAT      O10025   3.068   3.702   0.213 -0.0591 -0.1147  0.2982
 3208WAT     H110026   3.050   3.762   0.285  1.7742  0.2001  0.5292
 3208WAT     H210027   3.160   3.680   0.223  0.0916 -0.4876 -1.6531
 3209WAT      O10028   0.329   2.752   0.768 -0.2066 -0.7759  0.3461
 3209WAT     H110029   0.406   2.704   0.737 -1.7403 -3.3564  0.2600
 3209WAT     H210030   0.278   2.769   0.689 -0.1292  0.2108  0.4999
 3210WAT      O10031   0.082   6.247   5.183 -0.4095  0.2615 -0.0353
 3210WAT     H110032   0.139   6.312   5.142  1.4196 -0.8614  0.6151
 3210WAT     H210033  -0.006   6.270   5.153  0.4695  1.4721 -1.8604
 3211WAT      O10034   6.669   3.012   5.026 -0.8201  0.7302  0.4000
 3211WAT     H110035   6.674   2.918   5.045 -0.1404  0.7796  0.5152
 3211WAT     H210036   6.644   3.051   5.110 -0.6933  0.6875  0.4585
 3212WAT      O10037   5.836   6.256   2.733  0.2379  0.5127  0.4891
 3212WAT     H110038   5.817   6.181   2.789  0.1330  0.0961 -0.0890
 3212WAT     H210039   5.932   6.259   2.729  0.2451  0.5934  0.7617
 3213WAT      O10040   3.148   1.910   2.005  0.1509  0.1947  0.1363
 3213WAT     H110041   3.186   1.914   2.093 -0.3111  1.5708  0.3035
 3213WAT     H210042   3.053   1.915   2.020  0.0030 -0.7218 -0.4004
 3214WAT      O10043   0.863   4.103   6.042 -0.4686  0.2851  0.6384
 3214WAT     H110044   0.925   4.132   5.976 -0.9310 -1.0222 -0.4046
 3214WAT     H210045   0.904   4.129   6.125  2.4352 -2.0832  0.1493
 3215WAT      O10046   0.233   0.538   5.943  0.1529  0.2689  0.1006
 3215WAT     H110047   0.231   0.631   5.967 -0.3066  0.1459  0.5483
 3215WAT     H210048   0.299   0.500   6.001  0.0165  0.2327  0.2337
 3216WAT      O10049   6.467   1.476   5.601 -0.4212 -0.3274  0.1813
 3216WAT     H110050   6.403   1.451   5.668 -1.7896  2.2519 -0.0524
 3216WAT     H210051   6.547   1.430   5.626 -0.8194  0.6261  3.7213
 3217WAT      O10052   4.775   3.285   0.070 -0.5723  0.6572 -0.5170
 3217WAT     H110053   4.722   3.210   0.098 -1.2327  1.2104 -0.2370
 3217WAT     H210054   4.863   3.265   0.102 -0.7257 -0.0268 -0.5039
 3218WAT      O10055   5.615   7.098   1.548  0.5021 -0.0729 -0.4057
 3218WAT     H110056   5.653   7.066   1.630 -0.5830 -2.6457 -0.8217
 3218WAT     H210057   5.690   7.132   1.498  1.3046  0.6499  1.2246
 3219WAT      O10058   0.805   0.860   3.465 -0.0451  0.1772  0.0359
 3219WAT     H110059   0.784   0.942   3.418 -0.5447  0.3516  0.5523
 3219WAT     H210060   0.870   0.886   3.530 -1.2563  0.4660  1.1584
 3220WAT      O10061   2.749   2.422   3.088 -0.0567  0.0637  0.4981
 3220WAT     H110062   2.779   2.487   3.152 -0.8904  0.4434  0.5169
 3220WAT     H210063   2.692   2.471   3.029 -0.2410 -0.5394  0.1710
 3221WAT      O10064   0.970   1.723   5.719  0.2210  0.3280 -0.1889
 3221WAT     H110065   0.937   1.793   5.776 -2.0987 -1.2565  0.5611
 3221WAT     H210066   1.059   1.706   5.749 -0.5539  0.3032  2.2486
 3222WAT      O10067   3.516   1.852   2.884 -0.0737 -0.5117  0.4434
 3222WAT     H110068   3.523   1.927   2.943 -1.4663 -0.0040  0.0192
 3222WAT     H210069   3.469   1.886   2.807 -1.4356 -1.9694  0.5693
 3223WAT      O10070   1.629   4.752   2.798 -0.1388  0.6192 -0.3770
 3223WAT     H110071   1.550   4.698   2.804 -0.7314  1.2627 -1.8128
 3223WAT     H210072   1.596   4.841   2.785  0.7326  0.5662 -3.9147
 3224WAT      O10073   6.257   0.920   6.175  0.1044  0.1432  0.2125
 3224WAT     H110074   6.295   0.833   6.175 -2.3173 -1.0131  0.7209
 3224WAT     H210075   6.327   0.978   6.204  1.4894 -1.7708  0.8371
 3225WAT      O10076   7.598   2.857   1.958  0.2258  0.6547  0.0121
 3225WAT     H110077   7.685   2.894   1.951  0.8473 -0.9933 -1.5668
 3225WAT     H210078   7.609   2.764   1.940 -1.7366  0.2227  0.6893
 3226WAT      O10079   0.102   3.394   3.802  0.1040  0.2913  0.2059
 3226WAT     H110080   0.137   3.310   3.772  0.1431  0.0003  1.0174
 3226WAT     H210081   0.175   3.435   3.849 -0.2699  0.2179  0.8734
 3227WAT      O10082   7.167   4.728   0.168 -0.5702 -0.2321 -0.2497
 3227WAT     H110083   7.083   4.772   0.153 -0.4443 -0.7196 -2.8506
 3227WAT     H210084   7.143   4.640   0.196 -0.8818  0.0559  0.4190
 3228WAT      O10085   2.826   5.779   0.204  0.1943  0.4607  0.2100
 3228WAT     H110086   2.835   5.794   0.298 -1.0841 -0.7032  0.5358
 3228WAT     H210087   2.844   5.686   0.192 -1.0476  0.2915 -0.4897
 3229WAT      O10088   4.115   1.719   0.084  0.3796 -0.2789  0.3963
 3229WAT     H110089   4.134   1.680   0.170 -0.1509 -1.1098  0.1505
 3229WAT     H210090   4.088   1.808   0.104 -1.7214 -1.0611  1.3064
 3230WAT      O10091   5.620   3.167   3.449  0.0961  0.5846 -0.3833
 3230WAT     H110092   5.666   3.235   3.401  0.4474  0.4153 -0.2933
 3230WAT     H210093   5.612   3.201   3.538 -0.5214  0.8823 -0.5487
 3231WAT      O10094   6.964   1.075   0.356 -0.7783  0.0047 -0.0455
 3231WAT     H110095   6.897   1.023   0.312 -0.0326 -1.3905  0.4090
 3231WAT     H210096   7.047   1.041   0.322 -0.2601  0.4266  0.7674
 3232WAT      O10097   0.647   7.178   0.337 -0.2763  0.0733 -0.0244
 3232WAT     H110098   0.558   7.144   0.343 -1.1561  2.2446  0.3497
 3232WAT     H210099   0.664   7.218   0.423  0.2921  1.3533 -0.6960
 3233WAT      O10100   3.817   3.695   4.503  0.1175 -0.4218  0.2002
 3233WAT     H110101   3.881   3.637   4.463  0.7765  0.7750 -0.5374
 3233WAT     H210102   3.868   3.746   4.567 -0.3736 -0.3684  0.5576
 3234WAT      O10103   4.016   1.964   0.710  0.0212 -0.7135  0.0585
 3234WAT     H110104   3.987   2.052   0.732  0.4976  0.1379 -2.4191
 3234WAT     H210105   4.035   1.923   0.795 -0.8639  1.3004  1.3054
 3235WAT      O10106   0.302   3.936   1.734  0.6093  0.7016  0.0215
 3235WAT     H110107   0.349   3.925   1.817 -0.8044  0.5905  0.8408
 3235WAT     H210108   0.231   3.996   1.755 -1.3039 -1.2974 -0.4566
 3236WAT      O10109   2.423   3.421   3.480  0.2978 -0.4372  0.5032
 3236WAT     H110110   2.514   3.442   3.459  0.1883 -0.3117  0.1390
 3236WAT     H210111   2.421   3.325   3.483  0.6292 -0.4211  1.3904
 3237WAT      O10112   7.236   3.977   0.135  0.1802 -0.4403 -0.2508
 3237WAT     H110113   7.256   4.000   0.226  0.7127 -0.9289 -0.2363
 3237WAT     H210114   7.216   3.884   0.137 -2.4039  0.0410 -0.2417
 3238WAT      O10115   4.296   1.870   4.464  0.5639 -0.1462  0.6243
 3238WAT     H110116   4.361   1.817   4.418 -0.0971  0.2345 -0.8260
 3238WAT     H210117   4.347   1.926   4.522  1.3299 -1.6590  1.4514
 3239WAT      O10118   2.413   5.984   5.806 -0.4435 -0.2716  0.4457
 3239WAT     H110119   2.341   5.921   5.811 -0.1718 -0.4889  2.8583
 3239WAT     H210120   2.492   5.930   5.802 -0.3103 -0.0608  0.2110
 3240WAT      O10121   0.563   3.128   2.530 -0.2625  0.4691 -0.0494
 3240WAT     H110122   0.647   3.086   2.549  0.5734  1.2770 -1.7735
 3240WAT     H210123   0.546   3.183   2.606 -0.2588 -1.1978  1.2254
 3241WAT      O10124   4.155   5.992   0.527  0.4203  0.2727 -0.1750
 3241WAT     H110125   4.181   6.071   0.480 -1.4974 -0.1138 -2.0284
 3241WAT     H210126   4.112   6.024   0.606  0.9652  1.0192 -0.1671
 3242WAT      O10127   6.275   0.202   3.608 -0.3497 -0.4612  0.0322
 3242WAT     H110128   6.365   0.169   3.602 -1.0498 -2.6103  0.3881
 3242WAT     H210129   6.237   0.184   3.522 -0.0307  1.9851 -0.7105
 3243WAT      O10130   0.851   5.028   4.779  0.3528  0.2008 -0.1246
 3243WAT     H110131   0.915   5.062   4.843  0.9600 -1.6050  0.2974
 3243WAT     H210132   0.887   4.943   4.753 -1.5599 -0.5783 -0.3704
 3244WAT      O10133   5.956   0.960   0.878  0.1417 -0.1840 -0.5541
 3244WAT     H110134   5.968   0.867   0.895  1.9999 -0.1401 -1.3973
 3244WAT     H210135   6.043   0.998   0.891 -0.2113  1.1575 -1.8918
 3245WAT      O10136   6.117   0.993   2.740  0.1153  0.1122  0.3404
 3245WAT     H110137   6.202   0.995   2.785  0.1011  2.1590  0.3908
 3245WAT     H210138   6.082   0.906   2.757  1.0745  0.0974  2.4824
 3246WAT      O10139   6.259   5.212   5.862  0.4057 -0.1242  0.2217
 3246WAT     H110140   6.220   5.195   5.947  1.1396 -0.1529  0.5621
 3246WAT     H210141   6.274   5.306   5.861  0.6619 -0.1651  0.2380
 3247WAT      O10142   7.488   5.409   5.394 -0.1026  0.4965  0.2343
 3247WAT     H110143   7.528   5.323   5.378  1.0680  1.2247 -0.9487
 3247WAT     H210144   7.511   5.430   5.484 -0.2371 -0.3400  0.4750
 3248WAT      O10145   4.067   4.643   3.292  0.2020  0.0556  0.2371
 3248WAT     H110146   4.124   4.671   3.364  2.0701 -0.0726 -1.1103
 3248WAT     H210147   3.979   4.644   3.329  0.6988  3.1571  1.5889
 3249WAT      O10148   0.449   3.537   4.330 -0.0756  0.2748 -0.1781
 3249WAT     H110149   0.461   3.631   4.315  0.1504 -0.0383 -2.2656
 3249WAT     H210150   0.526   3.497   4.290  0.7167 -0.7591  2.1991
 3250WAT      O10151   3.752   3.115   3.951  0.6167 -0.2095 -0.0396
 3250WAT     H110152   3.774   3.091   4.041 -0.7865 -0.8703  0.1583
 3250WAT     H210153   3.794   3.048   3.897  0.5527 -0.4439  0.2006
 3251WAT      O10154   7.570   1.701   2.711 -0.0974 -0.0110 -0.1215
 3251WAT     H110155   7.586   1.644   2.786 -0.2302  0.1011 -0.0099
 3251WAT     H210156   7.655   1.743   2.695  0.4602 -1.4364 -1.2077
 3252WAT      O10157   7.111   2.841   4.682 -0.8514  0.2063 -0.7184
 3252WAT     H110158   7.068   2.778   4.740 -0.3341 -0.9031 -1.5046
 3252WAT     H210159   7.163   2.896   4.741  0.2584 -1.3724 -0.1554
 3253WAT      O10160   3.863   0.885   1.474  0.3169  0.1121 -0.0005
 3253WAT     H110161   3.908   0.965   1.447 -2.3198  1.2715 -1.3954
 3253WAT     H210162   3.827   0.906   1.560  1.3047 -0.3705  0.5550
 3254WAT      O10163   6.404   1.758   4.964 -0.6576  0.2072  0.5444
 3254WAT     H110164   6.465   1.701   5.012 -0.4770 -1.5244 -1.5585
 3254WAT     H210165   6.420   1.845   4.999  2.2259 -0.3527  0.9076
 3255WAT      O10166   4.471   2.767   5.954  0.2266  0.2285 -0.5526
 3255WAT     H110167   4.411   2.768   6.029  2.3509 -0.9088  1.2600
 3255WAT     H210168   4.488   2.859   5.936  1.2202  0.5403  1.7156
 3256WAT      O10169   2.806   6.354   6.243 -0.4168 -0.7440 -0.2026
 3256WAT     H110170   2.748   6.370   6.318 -1.0690  0.0565 -0.8581
 3256WAT     H210171   2.873   6.421   6.249  0.2023 -1.4007  0.3102
 3257WAT      O10172   7.491   6.466   3.198  0.2913 -0.0005  0.3616
 3257WAT     H110173   7.397   6.447   3.202 -0.1084  1.7892  0.2358
 3257WAT     H210174   7.524   6.438   3.283 -0.3364 -0.7133  0.3852
 3258WAT      O10175   5.925   5.376   5.529 -0.1396 -0.0207  0.1643
 3258WAT     H110176   5.942   5.351   5.620 -0.0199  1.0404  0.4423
 3258WAT     H210177   5.978   5.455   5.515  0.1014 -0.3568 -0.9330
 3259WAT      O10178   2.396   6.741   3.087  0.0217 -0.2532 -0.1325
 3259WAT     H110179   2.469   6.730   3.026 -2.5270 -0.2076 -3.4753
 3259WAT     H210180   2.402   6.833   3.114  1.0378 -0.1769 -0.5582
 3260WAT      O10181   5.092   1.325   2.629  0.2047  0.0077 -0.3092
 3260WAT     H110182   5.042   1.358   2.704  0.3418 -1.8506  0.6532
 3260WAT     H210183   5.176   1.370   2.634 -0.6223  1.6666 -0.7693
 3261WAT      O10184   2.496   7.126   5.468  0.5661  0.1997 -0.4465
 3261WAT     H110185   2.404   7.145   5.486  0.6432  0.7452 -0.5877
 3261WAT     H210186   2.512   7.041   5.508  0.0075  0.1151 -0.3974
 3262WAT      O10187   6.954   5.119   2.131  0.2544  0.2674 -0.5506
 3262WAT     H110188   6.878   5.087   2.181  0.8206 -0.2056  0.0149
 3262WAT     H210189   6.928   5.206   2.102 -1.4814 -0.7977 -2.4367
 3263WAT      O10190   1.561   3.757   4.340 -0.5861  0.4277 -0.0425
 3263WAT     H110191   1.548   3.773   4.434  0.3364 -0.9915  0.3641
 3263WAT     H210192   1.515   3.675   4.324  0.2917  0.0218 -0.5434
 3264WAT      O10193   2.647   3.557   1.456 -0.3994 -0.2459 -0.5860
 3264WAT     H110194   2.585   3.579   1.387 -0.3030 -1.2893 -1.0216
 3264WAT     H210195   2.603   3.487   1.506 -1.1974  1.6179  1.4708
 3265WAT      O10196   0.746   2.984   0.738  0.1330  0.3078 -0.3668
 3265WAT     H110197   0.841   2.986   0.721  0.3432 -0.2241  0.6436
 3265WAT     H210198   0.738   2.939   0.822 -0.7561  3.3110  1.3096
 3266WAT      O10199   4.376   2.373   4.103 -0.2619  0.0677  0.0154
 3266WAT     H110200   4.296   2.353   4.151 -0.2598  1.5593  0.6633
 3266WAT     H210201   4.396   2.464   4.124  0.9305  0.1052 -1.1138
 3267WAT      O10202   4.960   2.994   4.589  0.0354  0.3724 -0.3118
 3267WAT     H110203   5.009   2.938   4.649 -0.7038  0.6945  0.6150
 3267WAT     H210204   4.875   3.006   4.631 -0.2075  1.2762 -1.0300
 3268WAT      O10205   4.973   1.446   0.096 -0.4627  0.6253  0.7537
 3268WAT     H110206   5.020   1.395   0.030  1.0042  1.0494  1.4144
 3268WAT     H210207   4.991   1.400   0.178  0.2683  1.7595  1.2510
 3269WAT      O10208   7.419   3.594   2.512  1.1242 -0.4013 -0.1489
 3269WAT     H110209   7.439   3.519   2.568 -0.7051 -0.1459  0.9324
 3269WAT     H210210   7.481   3.662   2.540  1.3959 -0.8346  0.3171
 3270WAT      O10211   4.747   4.694   1.232  0.4209 -0.5147  0.3225
 3270WAT     H110212   4.693   4.628   1.189 -0.2734 -0.6002  1.2912
 3270WAT     H210213   4.685   4.754   1.272  1.0521  0.3339  0.0513
 3271WAT      O10214   6.452   3.519   2.435  0.5278  0.2973  0.5712
 3271WAT     H110215   6.454   3.462   2.359 -0.4934 -2.0232  2.1669
 3271WAT     H210216   6.518   3.482   2.494 -0.1818  0.7115  1.6616
 3272WAT      O10217   3.689   2.378   0.015 -0.2271 -0.2082  0.8020
 3272WAT     H110218   3.611   2.376   0.072  1.1794 -0.2755  2.8378
 3272WAT     H210219   3.758   2.339   0.068  0.9139 -1.4894 -1.4900
 3273WAT      O10220   0.594   6.024   2.221  0.1233 -0.3318 -0.0910
 3273WAT     H110221   0.645   5.969   2.161 -0.1347  0.6329 -1.2199
 3273WAT     H210222   0.653   6.039   2.295  0.8220 -0.7246 -0.5502
 3274WAT      O10223   1.280   2.220   2.696  0.4751  0.1451  0.7212
 3274WAT     H110224   1.334   2.245   2.621  0.3720 -0.2046  0.5298
 3274WAT     H210225   1.266   2.302   2.743  1.2953  0.2231  0.8525
 3275WAT      O10226   5.263   6.008   1.479  0.1399  0.6322  0.1889
 3275WAT     H110227   5.271   6.036   1.388  1.2016 -0.2175  0.0035
 3275WAT     H210228   5.332   5.943   1.491  1.2836  2.0913  2.1456
 3276WAT      O10229   4.843   2.691   4.494  0.1242 -0.0151 -0.1930
 3276WAT     H110230   4.910   2.739   4.445 -0.3094  2.1136  1.1342
 3276WAT     H210231   4.760   2.721   4.457 -0.1755  0.8819  1.1414
 3277WAT      O10232   4.402   2.133   0.511 -0.3401 -0.2272 -0.2537
 3277WAT     H110233   4.481   2.092   0.478 -1.2283 -1.6748 -0.6934
 3277WAT     H210234   4.346   2.059   0.537 -1.0027  0.7861  1.3434
 3278WAT      O10235   2.038   2.171   4.509  0.1196  0.4724 -0.1248
 3278WAT     H110236   1.954   2.157   4.553 -0.0791  0.8683 -0.3739
 3278WAT     H210237   2.084   2.233   4.566  0.1836  0.3719 -0.0665
 3279WAT      O10238   4.612   5.240   4.590 -0.2319 -0.0769  0.0055
 3279WAT     H110239   4.689   5.291   4.565 -0.6550  0.9979  0.8265
 3279WAT     H210240   4.636   5.202   4.675 -0.5588  0.1337  0.1892
 3280WAT      O10241   5.651   2.406   3.452 -0.7881 -0.3716  0.2289
 3280WAT     H110242   5.701   2.456   3.516 -1.4066  0.7517 -0.1396
 3280WAT     H210243   5.714   2.384   3.384 -0.0974 -1.6796  1.2523
 3281WAT      O10244   1.612   4.856   0.137 -0.0276 -0.4550 -0.0245
 3281WAT     H110245   1.520   4.831   0.139 -0.3667  0.6647 -0.7342
 3281WAT     H210246   1.625   4.908   0.217  0.5936 -2.5103  1.2747
 3282WAT      O10247   0.124   5.401   3.485  0.7229  0.0189  0.2017
 3282WAT     H110248   0.078   5.457   3.548  0.6954  1.7296 -1.2568
 3282WAT     H210249   0.166   5.334   3.538 -1.4541 -0.1923  1.8103
 3283WAT      O10250   2.690   5.511   1.225  0.2621 -0.1556  0.4821
 3283WAT     H110251   2.664   5.518   1.317 -0.9066  1.2020  0.0768
 3283WAT     H210252   2.631   5.445   1.188 -0.8020  0.8964  0.2236
 3284WAT      O10253   5.137   0.993   2.605 -0.1075 -0.5733 -0.0697
 3284WAT     H110254   5.106   1.072   2.649 -2.5192 -0.9365 -0.9946
 3284WAT     H210255   5.207   1.024   2.547 -2.2025  1.2932 -1.7941
 3285WAT      O10256   3.694   2.299   0.478 -0.6050  0.0027  0.0592
 3285WAT     H110257   3.628   2.345   0.530 -1.9880  1.3571 -2.7203
 3285WAT     H210258   3.772   2.353   0.486 -1.0046  0.5752  0.1840
 3286WAT      O10259   2.730   6.763   3.639  0.7075 -0.3481 -0.2722
 3286WAT     H110260   2.810   6.816   3.646  0.6686 -0.1819 -1.0212
 3286WAT     H210261   2.755   6.678   3.677  0.6338  0.3246  1.3602
 3287WAT      O10262   1.912   0.363   3.956 -0.8971 -0.6011 -0.9227
 3287WAT     H110263   1.900   0.333   4.047 -0.3629  2.7032  0.3949
 3287WAT     H210264   1.826   0.394   3.930 -0.1698  3.0826  0.4705
 3288WAT      O10265   6.745   1.668   1.611  0.1645  0.2410 -0.1532
 3288WAT     H110266   6.806   1.658   1.684  1.0922 -0.5276 -1.0173
 3288WAT     H210267   6.662   1.633   1.644  0.2934  0.8736  0.8753
 3289WAT      O10268   0.025   2.748   4.452 -0.5575  0.4728  0.6217
 3289WAT     H110269   0.110   2.771   4.488 -1.1603  1.5256  1.4456
 3289WAT     H210270   0.034   2.758   4.358 -0.0774  1.7089  0.7829
 3290WAT      O10271   1.220   3.880   5.317  0.2419 -0.3903 -0.0531
 3290WAT     H110272   1.290   3.815   5.324  1.1951  0.5047 -0.8372
 3290WAT     H210273   1.184   3.886   5.405 -1.3425 -3.4777 -0.3603
 3291WAT      O10274   0.109   2.199   0.735  0.4776  0.2841 -0.5649
 3291WAT     H110275   0.164   2.124   0.759  0.9371  0.8881  0.2870
 3291WAT     H210276   0.170   2.266   0.706  0.1238  0.6519 -0.4701
 3292WAT      O10277   6.980   1.450   2.233  0.8438  0.3632 -0.0391
 3292WAT     H110278   6.972   1.354   2.234  0.4560  0.3898  0.7609
 3292WAT     H210279   7.074   1.466   2.245  0.9467  0.0789 -0.4684
 3293WAT      O10280   1.334   5.576   1.095  0.0771  0.0940 -0.1062
 3293WAT     H110281   1.364   5.492   1.061 -1.0857 -0.3767 -0.0397
 3293WAT     H210282   1.299   5.556   1.182 -1.0665  0.4459 -0.4572
 3294WAT      O10283   0.695   6.464   5.957 -0.4228 -0.0843  0.2402
 3294WAT     H110284   0.615   6.509   5.982 -0.6297 -0.1017 -0.3747
 3294WAT     H210285   0.671   6.413   5.880  0.4651  0.8514 -0.6973
 3295WAT      O10286   2.824   2.060   2.822  0.0220 -0.6364 -0.3711
 3295WAT     H110287   2.805   1.968   2.807  0.0463 -0.8229  0.6764
 3295WAT     H210288   2.791   2.077   2.911  1.3105 -0.0033  0.0073
 3296WAT      O10289   2.910   6.952   5.782  0.4691 -0.2626  0.0999
 3296WAT     H110290   2.989   6.918   5.824 -0.1927 -2.3450 -0.2705
 3296WAT     H210291   2.943   7.002   5.707  1.4501 -1.8319 -0.5605
 3297WAT      O10292   3.957   6.126   2.664 -0.8033 -0.1327  0.7339
 3297WAT     H110293   4.007   6.076   2.599  0.9050  2.3710 -0.0606
 3297WAT     H210294   4.002   6.111   2.747 -0.1214  0.2725  0.4456
 3298WAT      O10295   1.114   5.605   2.588 -0.3973 -0.5259 -0.2556
 3298WAT     H110296   1.120   5.514   2.617 -0.4561 -0.4040  0.1467
 3298WAT     H210297   1.110   5.655   2.669  0.4043 -0.1156 -0.4615
 3299WAT      O10298   5.153   1.461   2.288  0.3701 -0.3693  0.0784
 3299WAT     H110299   5.211   1.388   2.271  0.9936  0.3633 -1.0230
 3299WAT     H210300   5.072   1.439   2.242  0.1989 -0.8155  0.5825
 3300WAT      O10301   2.796   5.962   4.650  0.1723  0.2276 -0.5906
 3300WAT     H110302   2.802   5.946   4.744  0.6804 -0.3335 -0.7167
 3300WAT     H210303   2.872   6.018   4.630  0.7908 -0.6888 -0.8770
 3301WAT      O10304   1.989   2.420   1.154 -0.1823  0.1496  0.0330
 3301WAT     H110305   1.977   2.329   1.180  1.2916  0.0191  0.2953
 3301WAT     H210306   2.083   2.434   1.156 -0.4583  2.2596  1.9984
 3302WAT      O10307   2.689   1.170   5.867  0.9081 -0.8079  0.1885
 3302WAT     H110308   2.723   1.086   5.840  0.1558 -1.6822  1.8002
 3302WAT     H210309   2.601   1.151   5.900  0.9107  0.5110  1.0492
 3303WAT      O10310   7.630   4.566   0.704  0.2229 -0.7431 -0.1598
 3303WAT     H110311   7.702   4.503   0.711 -0.1380 -1.3164 -1.2830
 3303WAT     H210312   7.670   4.651   0.722  1.3964 -0.9417 -1.6626
 3304WAT      O10313   6.754   0.904   3.940  0.0006 -0.7013  0.1245
 3304WAT     H110314   6.798   0.930   4.021 -0.5665  0.7627 -0.0209
 3304WAT     H210315   6.675   0.957   3.936 -0.0709 -0.8673 -1.3161
 3305WAT      O10316   1.101   6.595   1.014 -0.0967  0.2424  0.1545
 3305WAT     H110317   1.141   6.669   1.061  0.2467 -0.0434  0.3184
 3305WAT     H210318   1.007   6.611   1.021 -0.0168  1.2664 -0.7735
 3306WAT      O10319   4.380   3.354   1.688  0.0184 -0.3940  0.0905
 3306WAT     H110320   4.319   3.362   1.615 -0.5953  0.9065  0.7193
 3306WAT     H210321   4.326   3.369   1.766  1.2357  1.4492  0.6287
 3307WAT      O10322   7.574   0.800   1.179  1.0210  0.3918  0.9116
 3307WAT     H110323   7.670   0.806   1.179  1.0802 -0.3866 -0.3452
 3307WAT     H210324   7.555   0.709   1.156 -0.0298  0.7136  0.4264
 3308WAT      O10325   4.774   7.110   0.137 -0.4440 -0.0423 -0.5552
 3308WAT     H110326   4.842   7.173   0.159 -0.8675 -0.3348  1.8448
 3308WAT     H210327   4.795   7.082   0.048  2.3659  0.1494 -0.0422
 3309WAT      O10328   2.334   1.500   5.600 -0.1819  0.5159 -0.0237
 3309WAT     H110329   2.334   1.557   5.677  1.3176  0.5039  0.0272
 3309WAT     H210330   2.421   1.460   5.601  0.4718  1.6468 -2.5400
 3310WAT      O10331   6.681   3.767   3.248 -0.0281 -0.4551 -0.1688
 3310WAT     H110332   6.631   3.722   3.316  1.0803 -1.0478  0.2846
 3310WAT     H210333   6.614   3.803   3.189 -0.9846 -1.6047  0.1601
 3311WAT      O10334   1.621   5.857   3.895  0.3668  0.0370 -0.0264
 3311WAT     H110335   1.701   5.888   3.938  0.1564 -3.2876  3.1899
 3311WAT     H210336   1.551   5.879   3.956 -0.8121  0.1773 -1.3716
 3312WAT      O10337   1.227   3.208   0.418  0.8021 -0.1970  0.2071
 3312WAT     H110338   1.305   3.185   0.469  0.5671 -0.9471  0.2444
 3312WAT     H210339   1.167   3.246   0.482  1.0517  0.1956  0.2156
 3313WAT      O10340   4.224   2.480   5.158 -0.2299  0.2360 -0.3611
 3313WAT     H110341   4.145   2.489   5.103 -0.9573  0.3551  0.6820
 3313WAT     H210342   4.229   2.387   5.177 -1.0415  0.4146  0.8623
 3314WAT      O10343   4.443   4.665   4.283  0.8650 -0.0211  0.2622
 3314WAT     H110344   4.428   4.720   4.359  1.8012  0.8408 -0.1482
 3314WAT     H210345   4.458   4.578   4.319  0.0038  0.1094  0.9623
 3315WAT      O10346   4.107   6.426   3.863 -0.0522 -0.4956  0.3296
 3315WAT     H110347   4.148   6.435   3.949 -1.1771  1.3002  0.7407
 3315WAT     H210348   4.015   6.406   3.883 -0.3860  0.2527 -0.4334
 3316WAT      O10349   5.255   1.157   2.234 -0.8742  0.1164 -0.0549
 3316WAT     H110350   5.184   1.108   2.276  0.0615 -0.7291  0.5653
 3316WAT     H210351   5.309   1.188   2.307 -0.7913  1.0725 -0.5044
 3317WAT      O10352   1.703   2.614   0.099 -0.4113  0.1536 -0.0060
 3317WAT     H110353   1.702   2.672   0.023 -1.3851 -0.5067 -0.5230
 3317WAT     H210354   1.651   2.660   0.165 -0.9248  0.0122 -0.3081
 3318WAT      O10355   7.606   3.592   2.285  0.0495 -0.0164 -0.4359
 3318WAT     H110356   7.536   3.534   2.313 -1.9663  1.2330 -2.5212
 3318WAT     H210357   7.568   3.680   2.291  2.4252  1.0344  0.9962
 3319WAT      O10358   6.872   3.736   5.131  0.1450  0.1028  0.3149
 3319WAT     H110359   6.843   3.750   5.041 -0.1258  0.1753  0.4122
 3319WAT     H210360   6.791   3.732   5.182  0.3422  1.7792  0.8022
 3320WAT      O10361   7.190   3.850   4.956  0.3779 -0.0537  0.2551
 3320WAT     H110362   7.175   3.923   4.896  0.6261 -1.3948 -1.5120
 3320WAT     H210363   7.279   3.864   4.989  0.9271 -0.2108 -1.0849
 3321WAT      O10364   2.023   6.692   3.491  0.3390  0.0485 -0.0218
 3321WAT     H110365   2.105   6.704   3.444  1.3629 -0.1755  1.6080
 3321WAT     H210366   2.038   6.735   3.575 -0.8259 -0.9120  0.7048
 3322WAT      O10367   1.456   0.532   0.045 -0.3921 -0.2454  0.5154
 3322WAT     H110368   1.458   0.516   0.139  0.3375 -0.3653  0.4797
 3322WAT     H210369   1.441   0.627   0.037 -0.7075 -0.2733  0.7415
 3323WAT      O10370   2.412   7.020   3.150 -0.0352  0.6955  0.4086
 3323WAT     H110371   2.434   7.043   3.060 -2.1846  0.0904 -0.3504
 3323WAT     H210372   2.346   7.085   3.175  1.7599  1.9086  2.2106
 3324WAT      O10373   7.297   2.151   4.820 -0.1025  0.1937  0.0309
 3324WAT     H110374   7.353   2.091   4.869 -1.5530  0.0699  1.6420
 3324WAT     H210375   7.340   2.237   4.830  0.2863 -0.0453  0.4508
 3325WAT      O10376   0.644   0.828   1.665 -0.0744  0.3101 -0.6377
 3325WAT     H110377   0.574   0.842   1.601  0.0435 -0.0660 -0.8546
 3325WAT     H210378   0.725   0.848   1.617  0.0725 -0.7270 -0.8527
 3326WAT      O10379   0.858   1.984   1.836 -0.0718 -0.0590 -0.3532
 3326WAT     H110380   0.785   2.028   1.879 -0.1840 -0.8513  0.2936
 3326WAT     H210381   0.932   1.999   1.894 -0.2236 -1.1336  0.1465
 3327WAT      O10382   2.980   4.192   1.682 -0.0493  0.0761  0.4579
 3327WAT     H110383   3.032   4.267   1.712 -0.1537 -0.1931  1.3458
 3327WAT     H210384   2.904   4.191   1.740 -1.9291  1.4273 -1.8129
 3328WAT      O10385   0.675   1.178   3.910 -0.1354  0.2476  0.1055
 3328WAT     H110386   0.757   1.151   3.953 -0.0667  2.2359  1.3232
 3328WAT     H210387   0.704   1.225   3.832 -0.1611 -0.1486 -0.1447
 3329WAT      O10388   3.472   1.473   5.136 -0.2721  0.4121  0.5983
 3329WAT     H110389   3.491   1.466   5.043 -0.5413 -1.7294  0.6551
 3329WAT     H210390   3.478   1.567   5.155 -0.5749  0.9405 -1.6337
 3330WAT      O10391   0.609   2.456   3.507  0.0595  0.1881 -0.2943
 3330WAT     H110392   0.660   2.527   3.545 -2.0661  1.7090 -0.1173
 3330WAT     H210393   0.652   2.436   3.424  2.4122 -0.4061  0.9829
 3331WAT      O10394   2.791   2.150   3.079  0.1999  0.2618 -0.4706
 3331WAT     H110395   2.786   2.246   3.078 -1.1439  0.2756  1.3308
 3331WAT     H210396   2.870   2.131   3.129 -0.1171  0.4612  0.1200
 3332WAT      O10397   2.887   6.770   5.459 -0.1569  0.1193  0.0723
 3332WAT     H110398   2.965   6.814   5.493 -0.1393 -1.2152  1.8939
 3332WAT     H210399   2.862   6.708   5.528 -2.3320 -0.1032 -0.8219
 3333WAT      O10400   5.741   2.195   2.074 -0.3983  0.1718 -0.4356
 3333WAT     H110401   5.768   2.208   1.983 -0.2801 -0.9917 -0.5798
 3333WAT     H210402   5.802   2.128   2.107 -0.2855  0.7626  0.5747
 3334WAT      O10403   0.142   1.850   2.667 -0.0643  0.0711 -0.5359
 3334WAT     H110404   0.193   1.892   2.736 -2.0159 -1.5699  2.1255
 3334WAT     H210405   0.179   1.763   2.659 -0.2385  0.0492 -1.1469
 3335WAT      O10406   4.986   1.351   4.055  0.0962 -0.2932  0.3507
 3335WAT     H110407   4.892   1.332   4.051 -0.0769 -0.5865  3.4579
 3335WAT     H210408   5.020   1.293   4.123  2.8759 -1.1786 -1.6087
 3336WAT      O10409   2.470   4.761   5.774  0.0115  0.6154  0.1243
 3336WAT     H110410   2.383   4.722   5.762 -0.0780  1.0367 -0.6420
 3336WAT     H210411   2.470   4.792   5.865 -0.1527 -0.5685  0.5491
 3337WAT      O10412   3.252   6.801   5.126 -0.3771  0.5583 -0.0003
 3337WAT     H110413   3.249   6.896   5.134 -0.7129  0.7850 -2.2136
 3337WAT     H210414   3.161   6.773   5.132 -0.7866  0.8439 -3.1280
 3338WAT      O10415   6.203   2.838   0.646  0.1952 -0.4736 -0.5382
 3338WAT     H110416   6.183   2.927   0.674  1.2204 -0.6988  1.0497
 3338WAT     H210417   6.202   2.787   0.727 -0.3820 -1.9171 -1.4224
 3339WAT      O10418   3.425   2.670   0.694  0.3493 -0.3293 -0.1482
 3339WAT     H110419   3.469   2.714   0.767 -0.8798 -0.7419  0.8873
 3339WAT     H210420   3.332   2.684   0.710  0.0635  0.1188 -2.0154
 3340WAT      O10421   4.065   4.919   4.894 -0.4468 -0.3842 -0.0065
 3340WAT     H110422   4.148   4.966   4.882 -1.0640  0.6957 -0.2279
 3340WAT     H210423   4.076   4.871   4.976  1.1268 -1.9173 -1.0451
 3341WAT      O10424   1.892   2.059   3.069  0.0365  0.2856 -0.1084
 3341WAT     H110425   1.836   2.062   3.146  0.1092 -0.5239 -0.0215
 3341WAT     H210426   1.935   2.145   3.068  0.3153  0.1794  0.9685
 3342WAT      O10427   0.208   3.333   4.639  0.1719  0.1946  0.4544
 3342WAT     H110428   0.132   3.276   4.642 -0.2467  0.7260  0.2322
 3342WAT     H210429   0.277   3.281   4.598 -0.3193 -0.0150 -0.1044
 3343WAT      O10430   4.508   6.908   4.424 -0.0939 -0.2684  0.2521
 3343WAT     H110431   4.601   6.925   4.414 -0.2919  1.2357  0.8143
 3343WAT     H210432   4.487   6.936   4.513 -1.2915  0.4391 -0.2227
 3344WAT      O10433   3.456   6.412   2.883 -0.2641 -0.1405  0.4205
 3344WAT     H110434   3.398   6.466   2.938  0.4568  1.3447 -0.2032
 3344WAT     H210435   3.543   6.448   2.898  0.1187 -0.5715 -0.6895
 3345WAT      O10436   0.122   0.627   3.507 -0.2408  0.5012  0.3165
 3345WAT     H110437   0.143   0.709   3.551  1.2268  0.4952 -0.3083
 3345WAT     H210438   0.079   0.574   3.574 -3.1324  2.4766  0.1913
 3346WAT      O10439   4.478   6.935   3.420  0.4305  0.1441  0.0283
 3346WAT     H110440   4.561   6.900   3.450  0.2120 -0.1482  0.3006
 3346WAT     H210441   4.452   6.998   3.487  1.0205  1.1624 -0.6581
 3347WAT      O10442   6.238   3.174   4.832 -0.3374 -0.7615 -0.7786
 3347WAT     H110443   6.182   3.126   4.893 -1.1092 -0.6231 -1.3697
 3347WAT     H210444   6.264   3.253   4.879 -1.3625 -0.3984 -0.8131
 3348WAT      O10445   0.658   6.290   1.669  0.1318 -0.1702  0.0688
 3348WAT     H110446   0.739   6.274   1.718  0.5848 -1.1205 -0.9455
 3348WAT     H210447   0.593   6.234   1.711  0.1988 -0.0044  0.3929
 3349WAT      O10448   1.676   5.654   5.531  0.5273  0.3523 -0.5962
 3349WAT     H110449   1.677   5.570   5.485 -2.2711 -1.4061  2.1193
 3349WAT     H210450   1.659   5.631   5.622  1.5222  3.8296  0.6229
 3350WAT      O10451   4.567   5.424   4.916 -0.0971  0.0635  0.3283
 3350WAT     H110452   4.611   5.503   4.886  0.5534  0.0302  1.1691
 3350WAT     H210453   4.520   5.450   4.994  0.3719 -0.4386  0.7877
 3351WAT      O10454   5.230   2.653   4.975 -0.1323  0.3275 -0.7001
 3351WAT     H110455   5.175   2.585   5.014  0.9496 -0.3617 -0.3487
 3351WAT     H210456   5.185   2.735   4.996 -0.5181 -0.1544  0.4275
 3352WAT      O10457   2.609   0.402   3.963  0.1981 -0.2107  0.0192
 3352WAT     H110458   2.658   0.482   3.944 -0.1506 -0.3691 -1.6637
 3352WAT     H210459   2.518   0.426   3.950  0.0530 -0.7565  0.0089
 3353WAT      O10460   0.399   0.770   2.251 -0.0592  0.3602 -0.3617
 3353WAT     H110461   0.490   0.799   2.247  0.1493 -0.1781  0.2913
 3353WAT     H210462   0.363   0.815   2.327 -0.3888  0.6700 -0.6910
 3354WAT      O10463   2.011   7.131   2.387  0.0125  0.0552  0.1915
 3354WAT     H110464   2.034   7.146   2.295  0.0823  0.6452  0.2981
 3354WAT     H210465   1.964   7.210   2.413  0.9170  0.3602  0.9573
 3355WAT      O10466   4.441   6.134   4.454  0.0673 -0.2056 -0.3419
 3355WAT     H110467   4.454   6.040   4.439  0.9769  0.0836 -1.5729
 3355WAT     H210468   4.392   6.139   4.536  0.7731 -1.7115  0.2048
 3356WAT      O10469   0.277   1.238   2.086 -0.2739 -0.0147  0.1223
 3356WAT     H110470   0.212   1.225   2.155 -1.2689  0.7021 -0.6451
 3356WAT     H210471   0.284   1.333   2.078  0.2558 -0.0924 -0.3629
 3357WAT      O10472   1.222   6.767   4.753 -0.1958 -0.2646 -0.3813
 3357WAT     H110473   1.305   6.789   4.796  0.0908  1.1359 -1.5721
 3357WAT     H210474   1.229   6.807   4.667 -2.1863  0.0276 -0.4363
 3358WAT      O10475   1.192   1.313   0.640 -0.5198  0.0463  0.4869
 3358WAT     H110476   1.143   1.231   0.649  0.3408 -0.5048  0.3038
 3358WAT     H210477   1.251   1.314   0.716 -0.7998  0.6986  0.7051
 3359WAT      O10478   1.777   5.749   2.256 -0.0061 -0.2596  0.0168
 3359WAT     H110479   1.807   5.677   2.313  0.5096 -1.3369 -1.5602
 3359WAT     H210480   1.687   5.725   2.233 -0.5180  0.6138  1.0267
 3360WAT      O10481   7.606   3.586   3.708 -0.1593 -0.1196  0.1955
 3360WAT     H110482   7.639   3.504   3.745  0.3126  0.9199  2.2024
 3360WAT     H210483   7.643   3.655   3.764 -0.5292  1.4824 -1.4270
 3361WAT      O10484   4.624   6.534   3.126 -0.2737  0.0800 -0.3434
 3361WAT     H110485   4.632   6.441   3.106  2.1492  0.1993 -0.2562
 3361WAT     H210486   4.556   6.539   3.192  0.2634 -1.7710  0.4026
 3362WAT      O10487   7.074   1.436   0.231 -0.0048 -0.7745  0.3603
 3362WAT     H110488   7.160   1.398   0.211  0.8878  0.5682  1.4586
 3362WAT     H210489   7.061   1.417   0.324 -1.1504 -1.3715  0.1026
 3363WAT      O10490   5.772   1.036   0.713  0.6580 -0.4169 -0.6115
 3363WAT     H110491   5.829   1.023   0.789  1.9376 -0.0691 -1.4705
 3363WAT     H210492   5.721   0.956   0.707  1.4374 -0.9694 -0.1107
 3364WAT      O10493   2.109   6.727   0.445  0.2464  0.1369  0.5267
 3364WAT     H110494   2.035   6.785   0.464 -2.0825 -2.3154 -0.4019
 3364WAT     H210495   2.132   6.690   0.530  0.7427  1.2451  0.8918
 3365WAT      O10496   1.926   1.138   4.616 -0.6890  0.3036  0.0305
 3365WAT     H110497   1.868   1.153   4.541 -0.3032  1.2451 -0.1011
 3365WAT     H210498   1.877   1.169   4.692 -0.6672  0.3525  0.0246
 3366WAT      O10499   6.421   0.823   1.143  0.0717  0.4814  0.2762
 3366WAT     H110500   6.487   0.810   1.212 -2.4831 -0.3014  2.7769
 3366WAT     H210501   6.373   0.741   1.140 -1.4733  1.3706 -0.6282
 3367WAT      O10502   0.068   0.687   5.646 -0.0713  0.1010  0.0867
 3367WAT     H110503   0.002   0.673   5.714  0.4924  0.9018  0.8174
 3367WAT     H210504   0.026   0.747   5.584  0.2724  1.3402  1.0233
 3368WAT      O10505   5.484   2.441   6.013  0.2219  0.8644  0.2115
 3368WAT     H110506   5.409   2.391   5.982  0.8154 -0.2577  0.5382
 3368WAT     H210507   5.496   2.413   6.104  1.9099 -0.0990 -0.2670
 3369WAT      O10508   6.272   1.074   0.661 -0.7250  0.3275  0.1147
 3369WAT     H110509   6.210   1.140   0.689 -0.2043  1.3777 -1.1304
 3369WAT     H210510   6.341   1.122   0.615  1.1463 -0.7529  1.6150
 3370WAT      O10511   5.887   2.416   0.689 -0.5339 -0.0640 -0.2445
 3370WAT     H110512   5.860   2.372   0.769  1.0342 -1.0720 -0.2223
 3370WAT     H210513   5.824   2.386   0.623 -0.3503 -1.2355  0.0837
 3371WAT      O10514   5.165   1.796   1.145 -0.0735 -0.1843  0.3587
 3371WAT     H110515   5.171   1.725   1.208 -3.5463 -1.7646 -0.8810
 3371WAT     H210516   5.202   1.760   1.064 -0.7310 -0.1634  0.0452
 3372WAT      O10517   1.716   2.720   2.448  0.0319  0.1076 -0.5157
 3372WAT     H110518   1.763   2.708   2.365 -0.5470  0.6263 -0.9257
 3372WAT     H210519   1.671   2.804   2.438  1.2720  1.0077  0.9628
 3373WAT      O10520   2.352   6.194   1.866  0.3000  0.6409 -0.0876
 3373WAT     H110521   2.299   6.273   1.868 -1.0960 -0.2624  0.0655
 3373WAT     H210522   2.320   6.142   1.939 -0.0373 -0.8128 -1.2133
 3374WAT      O10523   5.385   5.288   3.572 -0.7740 -0.3100 -0.4197
 3374WAT     H110524   5.393   5.379   3.603 -0.3219  0.1811 -1.9026
 3374WAT     H210525   5.475   5.257   3.565 -0.9251 -1.7483  2.3288
 3375WAT      O10526   0.925   0.405   1.582 -0.0351  0.1045 -0.1848
 3375WAT     H110527   0.985   0.432   1.513  0.3382  0.4162  0.2518
 3375WAT     H210528   0.917   0.482   1.639  0.3233 -0.4006  0.5739
 3376WAT      O10529   6.314   4.290   1.918 -0.0304  0.0419 -0.1047
 3376WAT     H110530   6.274   4.305   2.003  0.7128 -0.4867  0.3490
 3376WAT     H210531   6.379   4.359   1.910 -0.7746  0.6932 -0.6914
 3377WAT      O10532   1.408   3.030   3.852  0.1498  0.3796  0.5557
 3377WAT     H110533   1.445   2.987   3.775 -0.0628 -0.1668  0.7588
 3377WAT     H210534   1.440   2.980   3.926 -1.0306 -0.1454  0.7299
 3378WAT      O10535   3.271   1.286   4.617 -0.5147 -0.1631  0.1058
 3378WAT     H110536   3.282   1.332   4.700 -0.1060  0.2902 -0.1940
 3378WAT     H210537   3.252   1.355   4.554  0.6933 -0.3287 -0.4596
 3379WAT      O10538   5.308   5.214   5.843  0.0022 -0.6824  0.1210
 3379WAT     H110539   5.361   5.247   5.916 -0.0049 -1.6347  0.5716
 3379WAT     H210540   5.245   5.155   5.885 -1.8620  0.9067 -0.3103
 3380WAT      O10541   1.801   1.004   1.510 -0.0693 -0.3230  0.3585
 3380WAT     H110542   1.795   0.912   1.538  0.9934 -0.2733  0.7733
 3380WAT     H210543   1.826   1.051   1.589  0.4736  0.1720 -0.1026
 3381WAT      O10544   4.132   7.082   3.629  0.1784 -0.0011 -0.0391
 3381WAT     H110545   4.077   7.005   3.644 -0.3239  0.1396 -1.0949
 3381WAT     H210546   4.091   7.152   3.679 -0.0715 -0.1240 -0.0720
 3382WAT      O10547   7.378   5.696   2.051  0.4129  0.2467  0.0575
 3382WAT     H110548   7.398   5.672   2.142 -0.1938 -1.2519 -0.1920
 3382WAT     H210549   7.291   5.660   2.035 -0.6727  2.8059 -0.3027
 3383WAT      O10550   4.896   6.335   4.807 -0.8661  0.0075 -0.2472
 3383WAT     H110551   4.851   6.407   4.764 -1.1748  1.2163  1.9846
 3383WAT     H210552   4.837   6.307   4.876 -1.0254 -2.8713 -1.4069
 3384WAT      O10553   3.612   3.161   2.719  0.7325 -0.5034 -0.0111
 3384WAT     H110554   3.574   3.234   2.670  1.9578 -1.0603 -1.8954
 3384WAT     H210555   3.552   3.147   2.792  0.2296  2.0831  0.1694
 3385WAT      O10556   0.267   0.139   6.137 -0.1217  0.0476 -0.2534
 3385WAT     H110557   0.355   0.176   6.129 -0.3286  0.5238 -0.3962
 3385WAT     H210558   0.276   0.067   6.199  0.2376  0.5360  0.2704
 3386WAT      O10559   3.020   0.779   3.369  0.0260 -0.4454 -0.1549
 3386WAT     H110560   2.977   0.752   3.450 -1.8118 -2.7058 -1.7246
 3386WAT     H210561   3.029   0.874   3.376  0.3673 -0.6255  2.8412
 3387WAT      O10562   0.638   3.006   2.998  0.3653 -0.1577 -0.1016
 3387WAT     H110563   0.723   3.040   3.024  0.1634 -0.2345  0.6853
 3387WAT     H210564   0.579   3.081   3.006 -0.1967 -0.7633  2.2037
 3388WAT      O10565   3.105   3.694   0.729 -0.5489 -0.3486 -0.6447
 3388WAT     H110566   3.093   3.603   0.756 -1.0054  0.0390  0.5235
 3388WAT     H210567   3.166   3.690   0.656  0.2767 -1.5145  0.0804
 3389WAT      O10568   5.718   5.848   4.413  0.2102  0.2013 -0.1419
 3389WAT     H110569   5.680   5.841   4.500  1.5162 -0.8456  0.3867
 3389WAT     H210570   5.744   5.758   4.391  2.0461  0.7907 -0.5899
 3390WAT      O10571   0.438   1.527   1.381  0.3164 -0.1527  0.1058
 3390WAT     H110572   0.459   1.447   1.334 -4.3470 -1.3619 -0.3641
 3390WAT     H210573   0.414   1.498   1.469 -1.5391  0.6632 -0.0980
 3391WAT      O10574   4.238   4.807   3.428  0.0592 -1.1027  0.2874
 3391WAT     H110575   4.235   4.808   3.523  0.0183  0.1077  0.2990
 3391WAT     H210576   4.216   4.897   3.403 -5.6538 -2.4936 -1.0815
 3392WAT      O10577   4.626   6.259   2.094 -0.6107 -0.3432  0.1949
 3392WAT     H110578   4.601   6.351   2.101 -0.0919 -0.2064  0.2935
 3392WAT     H210579   4.555   6.212   2.138 -0.3196  0.0955  1.1864
 3393WAT      O10580   3.949   4.713   0.259  0.7005  0.1234  0.0931
 3393WAT     H110581   3.980   4.649   0.323  1.1644 -0.2126 -0.4667
 3393WAT     H210582   3.854   4.704   0.262  0.7786 -1.2906 -0.6733
 3394WAT      O10583   5.924   1.318   1.069 -0.5872 -0.0666 -0.3914
 3394WAT     H110584   5.994   1.305   1.005 -0.0757  0.3439  0.0764
 3394WAT     H210585   5.921   1.236   1.118 -1.7187 -0.8054 -1.6302
 3395WAT      O10586   4.357   2.398   4.891 -0.4741  0.4813  0.0350
 3395WAT     H110587   4.353   2.309   4.927  2.2342  0.4362  0.4412
 3395WAT     H210588   4.371   2.454   4.966  1.9011  0.7490 -0.5312
 3396WAT      O10589   3.444   4.389   4.154 -0.0123  0.7402  0.0237
 3396WAT     H110590   3.482   4.379   4.241  1.1204  2.0888 -0.2862
 3396WAT     H210591   3.386   4.465   4.160  0.4887  1.1752 -0.5211
 3397WAT      O10592   0.602   6.926   4.348 -0.0457 -0.6097  0.3697
 3397WAT     H110593   0.687   6.892   4.376 -0.3142 -1.4118  0.2340
 3397WAT     H210594   0.614   7.021   4.345  1.1802 -0.7674 -0.7052
 3398WAT      O10595   7.208   4.410   5.546 -1.0248 -1.0467  0.1710
 3398WAT     H110596   7.225   4.319   5.571 -0.5017 -0.8104  0.6987
 3398WAT     H210597   7.291   4.455   5.562 -0.8384 -0.7534 -1.4479
 3399WAT      O10598   2.127   6.620   0.156  0.4511 -0.7138  0.3468
 3399WAT     H110599   2.201   6.673   0.125  1.3167 -1.4782  1.0409
 3399WAT     H210600   2.091   6.671   0.228  1.8359 -1.4156  1.5988
 3400WAT      O10601   1.780   3.460   5.678 -0.5308 -0.5758 -0.2189
 3400WAT     H110602   1.756   3.430   5.766  1.4754 -0.7047  0.3243
 3400WAT     H210603   1.876   3.463   5.679 -0.5234  1.1965 -1.8233
 3401WAT      O10604   5.627   3.933   0.839 -0.1823 -0.4080  0.6070
 3401WAT     H110605   5.580   3.915   0.920  0.7987 -0.5376  1.1680
 3401WAT     H210606   5.686   4.005   0.862 -0.0496 -0.3044 -0.0518
 3402WAT      O10607   4.183   6.930   0.911  0.2502 -0.2970 -0.0229
 3402WAT     H110608   4.234   6.884   0.844  0.3826 -1.7301  1.0029
 3402WAT     H210609   4.163   7.015   0.872  2.3493 -0.1629 -0.9411
 3403WAT      O10610   4.730   0.353   3.778 -0.2709 -0.0176 -0.4783
 3403WAT     H110611   4.699   0.440   3.753  0.2364  0.6060  0.9566
 3403WAT     H210612   4.655   0.312   3.821 -0.1026  0.2492  0.0799
 3404WAT      O10613   3.421   4.116   0.678  0.1554 -0.3340 -0.2422
 3404WAT     H110614   3.514   4.117   0.698  0.1002 -2.7225  0.4038
 3404WAT     H210615   3.416   4.085   0.588 -0.0515 -2.0976  0.3513
 3405WAT      O10616   1.658   6.613   0.051  0.2388 -0.2468  0.0288
 3405WAT     H110617   1.679   6.682   0.114 -1.2483  0.7900 -0.5349
 3405WAT     H210618   1.577   6.575   0.084 -0.0296 -0.3497 -0.7292
 3406WAT      O10619   6.978   6.583   5.450  0.4797 -0.5477  0.3229
 3406WAT     H110620   6.963   6.677   5.446 -0.4704 -0.5317  2.5686
 3406WAT     H210621   6.898   6.548   5.491  1.4022 -2.1243  0.8734
 3407WAT      O10622   5.162   3.291   3.437  0.0500  0.4217  0.6377
 3407WAT     H110623   5.229   3.350   3.472  1.3879 -2.2904  3.0884
 3407WAT     H210624   5.189   3.275   3.347 -0.5291  3.6284 -0.2105
 3408WAT      O10625   5.305   3.305   4.111  0.9233  0.2436  0.9668
 3408WAT     H110626   5.359   3.243   4.162  2.7291  2.1921  1.5869
 3408WAT     H210627   5.229   3.321   4.167  0.6016 -1.1349  0.9501
 3409WAT      O10628   1.601   1.027   6.077  0.1579  0.0798  0.0874
 3409WAT     H110629   1.576   1.078   6.154 -1.2563 -0.0389 -0.2666
 3409WAT     H210630   1.519   0.992   6.044  0.8853 -0.8309 -0.8119
 3410WAT      O10631   6.195   6.655   3.027 -0.0596 -0.5194 -0.6972
 3410WAT     H110632   6.216   6.745   3.051 -0.3477 -0.6223 -0.0218
 3410WAT     H210633   6.209   6.605   3.108 -1.3248 -0.8435 -0.6623
 3411WAT      O10634   4.639   3.734   3.605 -0.1351  0.1301 -0.2090
 3411WAT     H110635   4.561   3.696   3.566 -0.0842  0.8424 -1.0384
 3411WAT     H210636   4.712   3.690   3.562 -0.0805  0.7835 -0.8105
 3412WAT      O10637   5.176   0.908   0.937  0.1580 -0.4823  0.0764
 3412WAT     H110638   5.268   0.932   0.934  0.8632 -2.8575  0.3341
 3412WAT     H210639   5.130   0.990   0.954  2.0931  0.9646 -1.1840
 3413WAT      O10640   0.800   0.357   3.744 -0.4529  0.4619 -0.3656
 3413WAT     H110641   0.799   0.447   3.777  2.8981  0.4042  0.1931
 3413WAT     H210642   0.869   0.356   3.677 -0.8401 -1.5645 -0.8060
 3414WAT      O10643   0.949   1.761   2.795  0.3415 -0.8579 -0.5713
 3414WAT     H110644   1.023   1.712   2.833  1.0075  0.9913  0.6380
 3414WAT     H210645   0.964   1.852   2.821 -3.2192 -0.5856  1.1702
 3415WAT      O10646   6.751   1.046   2.986 -0.7543 -0.5893 -0.4022
 3415WAT     H110647   6.815   1.048   3.057  1.3191  0.3693 -2.1889
 3415WAT     H210648   6.735   0.952   2.971 -1.1243 -0.8134  1.1683
 3416WAT      O10649   3.455   6.783   0.337  0.7135 -0.0373  0.1071
 3416WAT     H110650   3.387   6.807   0.400  1.6771 -1.0086  1.5604
 3416WAT     H210651   3.409   6.781   0.253 -0.4679  1.9044  0.6276
 3417WAT      O10652   0.445   3.691   0.998 -0.4629  0.1497 -0.8546
 3417WAT     H110653   0.441   3.669   1.091 -0.4520  0.0419 -0.8785
 3417WAT     H210654   0.384   3.629   0.957 -1.7092  1.2498 -0.7331
 3418WAT      O10655   2.225   0.671   4.677  0.2919  0.1799  0.1232
 3418WAT     H110656   2.170   0.676   4.755 -1.3334 -3.0555 -0.6562
 3418WAT     H210657   2.179   0.723   4.611  0.1075  0.4821  0.4871
 3419WAT      O10658   3.611   5.885   0.303 -0.1474 -0.4171 -0.5061
 3419WAT     H110659   3.608   5.806   0.356 -1.7796 -0.0970 -0.0511
 3419WAT     H210660   3.536   5.936   0.332  0.3167  0.8692 -1.4597
 3420WAT      O10661   4.134   0.545   5.863 -0.0206 -0.0552 -0.1055
 3420WAT     H110662   4.182   0.592   5.931  0.1781 -0.7807  0.2604
 3420WAT     H210663   4.201   0.512   5.804 -0.2440  1.6352 -1.3905
 3421WAT      O10664   5.991   1.042   0.543  0.0479 -0.1128 -0.6554
 3421WAT     H110665   6.060   1.003   0.597  0.5374  1.2402 -0.2797
 3421WAT     H210666   5.915   1.048   0.601  0.7629  1.9436  0.1262
 3422WAT      O10667   6.395   4.373   2.497  0.1316 -0.4961  0.1393
 3422WAT     H110668   6.396   4.295   2.551  0.3298  0.7413  2.0111
 3422WAT     H210669   6.360   4.442   2.554  2.1347  1.3096 -0.6426
 3423WAT      O10670   3.890   6.765   0.679  0.3241  0.1659 -0.1180
 3423WAT     H110671   3.870   6.735   0.590 -0.8309 -1.2604  0.5649
 3423WAT     H210672   3.850   6.851   0.686 -1.6254 -0.6643 -0.3087
 3424WAT      O10673   2.316   0.202   3.379 -0.0301 -0.3587 -0.6198
 3424WAT     H110674   2.288   0.120   3.420 -1.0139 -0.2142 -0.9789
 3424WAT     H210675   2.259   0.269   3.416  1.4510  0.3567  0.4502
 3425WAT      O10676   6.824   5.672   2.911 -0.1520 -0.4249 -0.0525
 3425WAT     H110677   6.854   5.763   2.911  1.7392 -0.9645 -2.2247
 3425WAT     H210678   6.731   5.678   2.886  0.2218  0.8578 -1.2461
 3426WAT      O10679   0.148   0.717   1.501 -0.3554 -0.4488  0.4220
 3426WAT     H110680   0.216   0.728   1.568 -1.9825  1.9790  1.8007
 3426WAT     H210681   0.191   0.742   1.420  0.7570 -0.2319  1.0514
 3427WAT      O10682   2.092   1.775   3.699  0.0591  0.7462  0.0456
 3427WAT     H110683   2.112   1.868   3.703 -1.9984  1.2436 -0.1250
 3427WAT     H210684   2.029   1.767   3.627  1.4496 -1.0476 -1.0576
 3428WAT      O10685   6.099   2.173   0.007  0.1968  0.2345  0.3139
 3428WAT     H110686   6.041   2.101  -0.016 -0.1371  0.4300  0.5467
 3428WAT     H210687   6.159   2.135   0.072 -0.0394  0.1918  0.5092
 3429WAT      O10688   2.637   4.177   3.904  0.3877  0.1879  0.5446
 3429WAT     H110689   2.706   4.124   3.865  0.5255  0.9911 -0.3206
 3429WAT     H210690   2.611   4.238   3.835  2.1304  3.1316  2.2918
 3430WAT      O10691   7.466   3.848   5.026  0.1810  0.3390  0.7472
 3430WAT     H110692   7.527   3.776   5.042  1.7121  1.5277  0.5092
 3430WAT     H210693   7.447   3.883   5.113 -0.8671 -0.5558  0.8982
 3431WAT      O10694   4.954   2.393   4.892  0.2144 -0.3850 -0.1494
 3431WAT     H110695   4.926   2.314   4.845  0.4073  0.2193 -1.3215
 3431WAT     H210696   4.959   2.460   4.824 -0.0498  0.6702  0.8477
 3432WAT      O10697   3.877   3.482   5.412 -0.1183 -0.0929  0.5445
 3432WAT     H110698   3.873   3.561   5.359 -1.9061 -1.1800 -1.0809
 3432WAT     H210699   3.968   3.454   5.406  0.3179  1.2901  0.3384
 3433WAT      O10700   1.179   2.701   4.721 -0.4905  0.5504  0.2953
 3433WAT     H110701   1.137   2.660   4.645 -0.8836  0.5391  0.5127
 3433WAT     H210702   1.243   2.761   4.683 -1.0809  0.9671 -0.0687
 3434WAT      O10703   1.016   2.535   4.160  0.1652 -0.3798  0.0626
 3434WAT     H110704   0.944   2.598   4.152 -0.3897 -1.0351 -0.2567
 3434WAT     H210705   0.999   2.471   4.091 -0.3559 -1.9432  1.5881
 3435WAT      O10706   1.083   5.586   6.094 -0.0179  0.3385 -0.6086
 3435WAT     H110707   1.152   5.580   6.160  0.6202  0.6845 -1.2321
 3435WAT     H210708   1.017   5.644   6.133  1.1430  1.9403 -0.9395
 3436WAT      O10709   6.009   1.151   2.549  0.1789 -0.2823 -0.3429
 3436WAT     H110710   6.053   1.091   2.610 -0.7099 -0.7867 -0.1755
 3436WAT     H210711   6.071   1.222   2.537  0.6342 -0.4850  0.6617
 3437WAT      O10712   1.522   6.891   1.398 -0.3789  0.5722  0.5790
 3437WAT     H110713   1.605   6.848   1.377 -0.8149 -0.5548  1.0421
 3437WAT     H210714   1.532   6.918   1.489 -0.3480  0.8519  0.4915
 3438WAT      O10715   2.291   1.168   3.853  0.1647  0.2229  0.0879
 3438WAT     H110716   2.373   1.154   3.900 -0.1993  0.0598  0.6932
 3438WAT     H210717   2.244   1.085   3.863 -1.6722  1.4591  2.9981
 3439WAT      O10718   4.789   6.713   0.229  0.7661  0.1023  0.7724
 3439WAT     H110719   4.797   6.665   0.312 -1.4744 -2.0931 -0.1166
 3439WAT     H210720   4.860   6.679   0.175  0.3233 -0.8992  0.7873
 3440WAT      O10721   5.879   1.678   3.750 -0.3841  0.2547  0.0213
 3440WAT     H110722   5.829   1.720   3.820 -0.4028 -1.9266  1.4056
 3440WAT     H210723   5.824   1.689   3.672 -2.1043 -0.3245  1.0912
 3441WAT      O10724   1.865   5.790   2.986 -0.4801 -0.5227  0.6842
 3441WAT     H110725   1.889   5.840   2.908  0.0105 -1.8132 -0.0237
 3441WAT     H210726   1.882   5.849   3.059 -1.8112  1.0435 -0.2131
 3442WAT      O10727   0.262   5.397   3.238 -0.1562  0.2455  0.4152
 3442WAT     H110728   0.353   5.391   3.267  0.1499 -2.0478 -0.7938
 3442WAT     H210729   0.212   5.405   3.320  1.0562  0.1862  1.1906
 3443WAT      O10730   6.151   0.658   5.512  0.4233  0.1477 -0.4646
 3443WAT     H110731   6.149   0.620   5.600  2.0826 -1.3525 -1.0004
 3443WAT     H210732   6.178   0.748   5.525 -0.7894  0.3817  0.6484
 3444WAT      O10733   1.028   5.393   5.720  0.0592  0.7852 -0.6021
 3444WAT     H110734   1.117   5.421   5.700 -0.2686  2.4624  0.1405
 3444WAT     H210735   1.032   5.361   5.810  0.3470 -1.3680 -1.3109
 3445WAT      O10736   0.174   1.878   5.566  0.1706  0.4127 -0.1679
 3445WAT     H110737   0.205   1.965   5.540 -2.4960  1.7106  0.5667
 3445WAT     H210738   0.172   1.828   5.484  1.8109  0.9965 -0.5962
 3446WAT      O10739   3.445   1.128   0.619  0.3945 -0.9059  0.4342
 3446WAT     H110740   3.492   1.049   0.592  1.0039 -0.1755 -0.7225
 3446WAT     H210741   3.400   1.157   0.540 -1.0330 -0.9061  1.2172
 3447WAT      O10742   0.748   6.536   3.655 -0.7835  0.5405 -0.0822
 3447WAT     H110743   0.683   6.540   3.726  0.1832  1.1220  0.8064
 3447WAT     H210744   0.833   6.535   3.701 -0.1461 -1.8123 -1.1324
 3448WAT      O10745   6.377   0.880   2.604 -0.5525 -0.2359 -0.1015
 3448WAT     H110746   6.358   0.926   2.685 -0.3732  1.5078 -1.0134
 3448WAT     H210747   6.417   0.798   2.632  0.1827  0.6491  1.5474
 3449WAT      O10748   6.551   5.007   1.207  0.0349  0.7297  0.8871
 3449WAT     H110749   6.536   4.980   1.298 -0.6931 -3.3062 -0.2679
 3449WAT     H210750   6.465   5.033   1.175 -0.1968 -0.2521  0.6893
 3450WAT      O10751   4.801   5.604   2.792 -0.1689 -0.4460  0.1473
 3450WAT     H110752   4.809   5.690   2.835  2.3738 -0.1145 -0.8289
 3450WAT     H210753   4.776   5.544   2.863 -3.6539  1.2408  0.5882
 3451WAT      O10754   7.339   1.927   1.127  0.0246  0.0114  0.2295
 3451WAT     H110755   7.388   1.897   1.051 -0.5737  1.6704 -0.8577
 3451WAT     H210756   7.392   1.997   1.164 -0.7524  0.7473 -0.0216
 3452WAT      O10757   1.509   4.520   5.469  0.3322 -0.3530 -0.7342
 3452WAT     H110758   1.504   4.425   5.467  1.5517 -0.4297 -1.0188
 3452WAT     H210759   1.449   4.546   5.539 -1.2669 -1.2053 -1.7133
 3453WAT      O10760   2.900   1.989   5.723  0.8283  0.0108 -0.4642
 3453WAT     H110761   2.907   1.894   5.730 -0.5000 -0.0571  0.1873
 3453WAT     H210762   2.951   2.023   5.796  0.5850 -0.2339 -0.1791
 3454WAT      O10763   3.785   2.323   2.448  0.9383  0.0225  0.0867
 3454WAT     H110764   3.790   2.231   2.423  0.7378 -0.2489  1.0054
 3454WAT     H210765   3.695   2.336   2.478  1.1307  0.3549  0.5454
 3455WAT      O10766   1.821   6.325   1.848 -0.8548 -0.0086 -0.2251
 3455WAT     H110767   1.760   6.273   1.901 -0.4030  0.1585  0.4636
 3455WAT     H210768   1.907   6.307   1.885 -0.3999 -0.6267 -1.4957
 3456WAT      O10769   4.242   5.225   3.359  0.1059 -0.5102 -0.2206
 3456WAT     H110770   4.248   5.199   3.267  0.6699  0.6909 -0.5441
 3456WAT     H210771   4.303   5.298   3.368  0.2274 -0.7426  1.1686
 3457WAT      O10772   5.170   0.413   3.928 -0.6294 -0.4259  0.5313
 3457WAT     H110773   5.117   0.491   3.915  0.0038  0.2574  1.7946
 3457WAT     H210774   5.119   0.342   3.890 -1.2594  0.5761 -0.5657
 3458WAT      O10775   5.832   6.530   3.550  0.5082  0.4954 -0.3066
 3458WAT     H110776   5.788   6.514   3.466 -1.0497 -0.5483  0.6537
 3458WAT     H210777   5.779   6.597   3.592 -0.1785 -0.7094  0.8337
 3459WAT      O10778   1.538   4.916   4.212  0.1645  0.6904  0.0313
 3459WAT     H110779   1.474   4.846   4.220  1.9702 -1.0269  0.1730
 3459WAT     H210780   1.536   4.961   4.297  0.4051 -0.4781  0.6683
 3460WAT      O10781   1.092   1.353   1.757 -0.1946 -0.1343 -0.3189
 3460WAT     H110782   1.142   1.367   1.838  0.0668  3.0268 -0.9064
 3460WAT     H210783   1.140   1.401   1.690 -1.3102 -1.2922 -2.0433
 3461WAT      O10784   4.512   7.012   2.617  0.3598  0.9450  0.2355
 3461WAT     H110785   4.607   7.017   2.630  0.5092 -1.5042  0.6256
 3461WAT     H210786   4.480   6.958   2.689 -0.5865 -2.2685 -2.2870
 3462WAT      O10787   5.106   1.923   6.206  0.3518 -0.5864  0.2003
 3462WAT     H110788   5.022   1.960   6.234  0.3737 -0.0263 -0.4419
 3462WAT     H210789   5.167   1.996   6.211  0.6964 -0.8692  0.1734
 3463WAT      O10790   0.298   7.068   2.192 -0.0002  0.0314 -0.8876
 3463WAT     H110791   0.322   7.077   2.100  0.7547 -0.8828 -0.7926
 3463WAT     H210792   0.336   6.985   2.219  1.1273  1.0083  0.6677
 3464WAT      O10793   6.514   1.278   1.147 -0.4598 -0.2986  0.2737
 3464WAT     H110794   6.451   1.212   1.176 -0.7109  0.0878  0.6272
 3464WAT     H210795   6.460   1.349   1.113 -0.1690 -0.7849 -1.2597
 3465WAT      O10796   0.896   3.920   0.017 -0.3017  0.2776 -0.7170
 3465WAT     H110797   0.841   3.980   0.068 -1.6090 -0.6911 -0.9350
 3465WAT     H210798   0.985   3.936   0.048 -0.9572  0.2879  1.3035
 3466WAT      O10799   6.779   3.078   1.774 -0.3163  0.4136 -0.0500
 3466WAT     H110800   6.821   3.094   1.858  0.2183  1.5205 -0.5062
 3466WAT     H210801   6.685   3.070   1.795 -0.2607  1.2640  0.5849
 3467WAT      O10802   5.307   2.630   3.986  0.1123 -0.1804  0.7007
 3467WAT     H110803   5.220   2.631   4.027 -0.1335  0.6594  0.2017
 3467WAT     H210804   5.347   2.713   4.013 -0.0175  0.3531 -0.6209
 3468WAT      O10805   5.509   5.933   4.050  0.3839  0.4582  0.0748
 3468WAT     H110806   5.538   6.019   4.080 -1.9943  1.6706 -0.8511
 3468WAT     H210807   5.468   5.893   4.127 -1.7927  1.7591 -0.3121
 3469WAT      O10808   4.943   6.530   0.410  0.2234 -0.6586  0.2547
 3469WAT     H110809   5.018   6.550   0.353  0.0848 -2.6895 -0.7288
 3469WAT     H210810   4.982   6.516   0.496  0.7437 -0.0338  0.1366
 3470WAT      O10811   5.744   6.799   1.571  0.0402  0.1599 -0.1957
 3470WAT     H110812   5.812   6.815   1.506 -0.0452 -0.7027 -0.5182
 3470WAT     H210813   5.786   6.818   1.655  0.5372  0.0787 -0.4211
 3471WAT      O10814   6.193   4.318   0.527  0.0647  0.0364 -0.0610
 3471WAT     H110815   6.195   4.388   0.592 -1.7219  0.0326  0.0466
 3471WAT     H210816   6.283   4.284   0.526  1.1927  2.7427 -0.6377
 3472WAT      O10817   5.400   5.644   5.488 -1.1333 -0.3331 -0.2893
 3472WAT     H110818   5.381   5.720   5.543 -1.3169  0.4018 -1.3462
 3472WAT     H210819   5.468   5.596   5.536 -1.5240  0.1082  0.7306
 3473WAT      O10820   6.383   0.446   5.792 -0.4761  0.1824  0.2762
 3473WAT     H110821   6.302   0.494   5.778 -0.5645 -0.1217 -0.2850
 3473WAT     H210822   6.396   0.448   5.887  0.2253  2.4474  0.1931
 3474WAT      O10823   3.087   6.616   4.888  0.5695 -0.6167 -0.1604
 3474WAT     H110824   3.151   6.680   4.857  0.8138 -0.3013  0.9350
 3474WAT     H210825   3.004   6.645   4.852  0.6397  0.4739  0.5137
 3475WAT      O10826   3.151   4.879   0.238  0.1625  0.1365  0.4100
 3475WAT     H110827   3.152   4.902   0.330  0.7489  0.0029  0.4377
 3475WAT     H210828   3.101   4.798   0.234 -0.7917  0.7070  0.4714
 3476WAT      O10829   3.556   5.892   4.643  0.6905  0.4942  0.1323
 3476WAT     H110830   3.490   5.929   4.702  0.9656  2.4133 -0.7065
 3476WAT     H210831   3.636   5.940   4.662  0.7481  1.2934 -1.8811
 3477WAT      O10832   2.361   7.058   1.957  0.4813 -0.1143 -0.0403
 3477WAT     H110833   2.362   7.113   1.878 -0.5895  1.2108  0.8338
 3477WAT     H210834   2.432   7.094   2.011  2.3925 -2.1275 -1.0582
 3478WAT      O10835   7.048   5.485   0.374 -0.2471 -0.0528 -0.1876
 3478WAT     H110836   6.959   5.456   0.394 -0.2355 -1.3671 -1.7326
 3478WAT     H210837   7.079   5.527   0.453 -0.3766 -4.1814  2.3589
 3479WAT      O10838   1.300   3.533   2.187 -0.2971 -0.4641  0.1142
 3479WAT     H110839   1.362   3.529   2.260 -0.6992 -0.3948  0.4635
 3479WAT     H210840   1.352   3.563   2.112  0.2324 -1.0653  0.2394
 3480WAT      O10841   5.300   2.915   1.025 -0.1937  0.3034  0.2623
 3480WAT     H110842   5.375   2.863   1.052 -0.5886 -0.3723  0.0787
 3480WAT     H210843   5.230   2.851   1.013 -0.6876  0.8802  0.0381
 3481WAT      O10844   1.832   2.073   4.931 -0.4212  0.6548 -0.2726
 3481WAT     H110845   1.775   2.149   4.924 -0.4667  0.4581 -3.1385
 3481WAT     H210846   1.823   2.044   5.022 -1.9445  2.8427  0.3481
 3482WAT      O10847   2.595   1.284   0.096  0.1224 -0.1593 -0.1718
 3482WAT     H110848   2.532   1.355   0.110  0.4870  0.7522 -2.6356
 3482WAT     H210849   2.679   1.328   0.085  0.6015 -1.0965 -0.3834
 3483WAT      O10850   5.460   1.412   0.354  0.6495  0.4467 -0.5196
 3483WAT     H110851   5.438   1.505   0.354  1.6232  0.6998 -1.3425
 3483WAT     H210852   5.388   1.370   0.401  0.0822  1.5842 -0.3354
 3484WAT      O10853   3.566   4.456   1.302 -0.2007  0.5357 -0.0042
 3484WAT     H110854   3.491   4.508   1.331  0.0566 -0.6508  3.2959
 3484WAT     H210855   3.579   4.392   1.373  3.0398 -0.2146 -1.1122
 3485WAT      O10856   2.844   0.583   2.622  0.4599 -0.1016 -0.2351
 3485WAT     H110857   2.752   0.593   2.646  0.0387 -2.4422 -0.6321
 3485WAT     H210858   2.878   0.519   2.685  1.2455 -0.8291 -1.3531
 3486WAT      O10859   3.119   0.405   1.093  0.2727 -0.0568 -0.0090
 3486WAT     H110860   3.172   0.447   1.161  0.9578  1.0728 -1.1934
 3486WAT     H210861   3.176   0.404   1.016 -0.5265 -1.1939 -0.6207
 3487WAT      O10862   4.554   4.482   3.939 -0.2386  0.4278  0.5988
 3487WAT     H110863   4.565   4.417   3.869 -1.1167  0.2363  0.6270
 3487WAT     H210864   4.563   4.432   4.020  0.8572  0.6643  0.6309
 3488WAT      O10865   2.487   4.016   3.432 -0.2333  0.6165  0.3557
 3488WAT     H110866   2.460   3.938   3.384 -2.1083  1.6656 -0.3819
 3488WAT     H210867   2.568   3.990   3.477 -1.5385 -2.1961  1.3062
 3489WAT      O10868   1.160   1.997   3.014  0.4820 -0.2886 -0.8104
 3489WAT     H110869   1.136   2.065   2.951  1.1441  1.0299  0.3149
 3489WAT     H210870   1.118   2.023   3.096  0.4122 -1.4618 -0.4533
 3490WAT      O10871   3.354   2.077   0.840  0.1404  0.0238 -0.6091
 3490WAT     H110872   3.262   2.059   0.858 -0.0147 -0.3527 -1.7536
 3490WAT     H210873   3.400   2.046   0.919 -0.7393  0.6809  0.1847
 3491WAT      O10874   5.427   4.954   5.183  0.0566 -0.5571 -0.0960
 3491WAT     H110875   5.503   4.931   5.129  0.5437 -0.0096  0.3521
 3491WAT     H210876   5.459   5.023   5.241 -1.7742  2.6978 -2.6247
 3492WAT      O10877   6.800   5.427   5.081  0.1881 -0.8953 -0.4810
 3492WAT     H110878   6.798   5.423   5.177 -2.3871 -4.4404 -0.4706
 3492WAT     H210879   6.835   5.342   5.054 -0.8206 -0.6880 -2.6676
 3493WAT      O10880   6.908   4.292   2.115 -0.3915  0.6279  0.5998
 3493WAT     H110881   6.919   4.387   2.124  0.0992  0.5263  1.1771
 3493WAT     H210882   6.911   4.276   2.021 -2.1768  1.3738  0.3755
 3494WAT      O10883   6.519   5.260   0.282  0.2565 -0.2834  0.3189
 3494WAT     H110884   6.540   5.257   0.376 -4.2387  2.1935  1.7141
 3494WAT     H210885   6.480   5.174   0.264  2.0860 -1.1562  0.3790
 3495WAT      O10886   1.944   7.078   1.160 -0.0868  0.3843 -0.0109
 3495WAT     H110887   1.949   7.064   1.065 -1.2736 -1.0696  0.1061
 3495WAT     H210888   1.974   6.996   1.198  0.7124  1.0787  0.9002
 3496WAT      O10889   4.981   5.383   4.803 -0.6979 -0.3355  0.6192
 3496WAT     H110890   4.933   5.362   4.883  0.7310 -0.3938  1.5010
 3496WAT     H210891   4.996   5.298   4.760 -0.5450 -0.4250  0.8470
 3497WAT      O10892   0.857   6.490   3.186  0.0371 -0.0612  0.2400
 3497WAT     H110893   0.890   6.518   3.101  0.0688  1.3589  0.6873
 3497WAT     H210894   0.765   6.519   3.187  0.0930  0.1154  0.7538
 3498WAT      O10895   4.974   0.944   5.602  0.1673  0.0310 -0.1116
 3498WAT     H110896   4.945   0.854   5.617 -0.3354 -0.1162 -1.7614
 3498WAT     H210897   4.893   0.996   5.605  0.2464  0.1943 -0.7440
 3499WAT      O10898   6.990   1.167   2.258 -0.1222  0.1331 -0.2450
 3499WAT     H110899   7.082   1.172   2.234 -0.3526  1.6702 -0.9885
 3499WAT     H210900   6.984   1.092   2.316  1.6137  0.0553 -0.1088
 3500WAT      O10901   6.962   3.278   5.393  0.1402 -0.3304 -0.3634
 3500WAT     H110902   7.028   3.343   5.416  1.7227 -1.9719 -0.0375
 3500WAT     H210903   6.917   3.316   5.316 -1.0250  2.4071  1.4969
 3501WAT      O10904   4.877   2.633   4.759  0.2491  0.5557 -0.1159
 3501WAT     H110905   4.828   2.671   4.831 -1.4774  0.7951 -1.3737
 3501WAT     H210906   4.827   2.654   4.681  2.1241  0.4136 -1.4388
 3502WAT      O10907   2.842   0.828   1.138  0.6669 -0.1520 -0.7554
 3502WAT     H110908   2.933   0.827   1.167  1.0395  0.5862 -1.8741
 3502WAT     H210909   2.792   0.811   1.219  1.8023 -1.7690 -0.3248
 3503WAT      O10910   3.961   0.435   5.498 -0.5655  0.2597 -0.2668
 3503WAT     H110911   3.910   0.507   5.535 -0.4060 -0.5914  1.6981
 3503WAT     H210912   4.028   0.479   5.445 -1.7682  1.4630 -0.8416
 3504WAT      O10913   3.352   0.497   3.076  0.0304 -0.0449  0.1172
 3504WAT     H110914   3.382   0.440   3.005  1.5886 -0.4017  1.0150
 3504WAT     H210915   3.267   0.460   3.101 -0.4532 -0.0370 -1.3792
 3505WAT      O10916   3.855   2.270   4.998  0.0884  0.5977 -0.0776
 3505WAT     H110917   3.859   2.295   4.906  1.3309  1.0180  0.0649
 3505WAT     H210918   3.946   2.247   5.021 -0.2463  0.2382  0.9683
 3506WAT      O10919   5.138   5.666   1.948 -0.0517  0.0315 -0.6400
 3506WAT     H110920   5.090   5.615   2.013  0.1237  1.5886  0.7744
 3506WAT     H210921   5.224   5.679   1.988 -0.3526  2.0839 -0.5655
 3507WAT      O10922   7.150   6.655   4.020 -0.5273 -0.0908  0.0748
 3507WAT     H110923   7.071   6.627   3.973 -0.2725  1.0532 -1.0922
 3507WAT     H210924   7.117   6.713   4.089 -0.7101  0.4338 -0.4460
 3508WAT      O10925   3.988   4.132   3.651  0.2349  0.1830  0.0022
 3508WAT     H110926   3.959   4.041   3.644 -0.2415  0.3965 -0.9830
 3508WAT     H210927   3.935   4.170   3.721  1.7354 -0.7647  1.7501
 3509WAT      O10928   5.861   1.398   3.319  0.4996 -0.2270 -0.3378
 3509WAT     H110929   5.824   1.380   3.406  1.7692 -1.8513 -0.0896
 3509WAT     H210930   5.954   1.412   3.335  0.7722 -0.6849 -1.4403
 3510WAT      O10931   7.262   6.729   2.412 -0.2637  0.2075 -0.2126
 3510WAT     H110932   7.309   6.722   2.329 -1.6264 -0.1424 -0.9895
 3510WAT     H210933   7.235   6.639   2.432 -0.3966  0.3660  0.3415
 3511WAT      O10934   3.874   2.191   2.691  0.1097 -0.1094 -0.8645
 3511WAT     H110935   3.922   2.252   2.636  0.6884 -1.8598 -2.4312
 3511WAT     H210936   3.806   2.155   2.633 -0.3821 -0.7432  0.0779
 3512WAT      O10937   1.547   4.654   2.336  0.2512 -0.1832 -0.2884
 3512WAT     H110938   1.478   4.632   2.399  1.8218 -1.5171  1.0649
 3512WAT     H210939   1.538   4.589   2.266 -0.9930  0.8042 -1.0814
 3513WAT      O10940   3.607   1.279   4.454 -0.5202  0.0768  0.0103
 3513WAT     H110941   3.626   1.339   4.527 -0.6209  0.1115  0.0084
 3513WAT     H210942   3.686   1.226   4.445 -0.4906  0.1028  0.1169
 3514WAT      O10943   4.723   6.370   0.357 -0.3669 -0.1720 -0.5313
 3514WAT     H110944   4.806   6.418   0.365 -1.5068  1.8503 -0.0656
 3514WAT     H210945   4.716   6.321   0.438 -0.6333  1.4125  0.4522
 3515WAT      O10946   4.116   4.646   4.191  0.2767  0.4595 -0.5645
 3515WAT     H110947   4.133   4.571   4.249  0.5741  1.1196  0.2315
 3515WAT     H210948   4.167   4.627   4.112  1.9950  0.7326  0.4099
 3516WAT      O10949   2.455   2.559   3.429  0.3406  0.7829 -0.3671
 3516WAT     H110950   2.407   2.638   3.405 -0.4378  0.9017  1.4746
 3516WAT     H210951   2.406   2.487   3.388  0.1285  1.1132 -0.7005
 3517WAT      O10952   0.168   3.321   5.919  0.0617  0.6509  0.4564
 3517WAT     H110953   0.105   3.381   5.958  0.2213  1.3135 -0.2904
 3517WAT     H210954   0.248   3.373   5.908  0.7933 -0.2043  1.4890
 3518WAT      O10955   6.685   0.386   4.767  0.4030  0.7098  0.7171
 3518WAT     H110956   6.691   0.433   4.850 -0.3689  2.2552 -0.0572
 3518WAT     H210957   6.764   0.332   4.765  0.2171  0.2799  2.6389
 3519WAT      O10958   6.019   2.769   4.578 -0.0424  0.5509 -0.5178
 3519WAT     H110959   6.080   2.750   4.507 -0.2297  0.8716 -0.7695
 3519WAT     H210960   6.070   2.817   4.642  0.6554 -1.4413  0.5066
 3520WAT      O10961   0.689   6.742   2.365  0.5749  0.0091  0.5447
 3520WAT     H110962   0.668   6.652   2.390  0.1669 -0.1112 -0.1815
 3520WAT     H210963   0.776   6.758   2.402  0.1189 -0.2422  1.7529
 3521WAT      O10964   7.300   1.293   3.104  0.2888  0.3263  0.1301
 3521WAT     H110965   7.267   1.229   3.041  0.5323 -0.3921  0.7195
 3521WAT     H210966   7.382   1.323   3.066  0.6973 -0.4907  0.3394
 3522WAT      O10967   0.353   2.331   1.675 -0.4772 -0.8265 -0.3002
 3522WAT     H110968   0.364   2.247   1.719 -1.8102 -2.5036 -2.8772
 3522WAT     H210969   0.410   2.326   1.598 -0.8030  0.4975 -0.6639
 3523WAT      O10970   0.983   2.152   2.523 -0.1308 -0.4145  0.4386
 3523WAT     H110971   1.002   2.085   2.589  0.0337 -1.0533 -0.2400
 3523WAT     H210972   0.894   2.131   2.492  0.2900 -0.9342 -0.4705
 3524WAT      O10973   5.298   4.953   0.595 -0.1142 -0.5442  0.1455
 3524WAT     H110974   5.302   5.017   0.666 -1.4458 -0.9440  0.6132
 3524WAT     H210975   5.381   4.906   0.601 -0.1662 -0.5146  1.3870
 3525WAT      O10976   0.616   6.287   3.215 -0.1540  0.1097 -0.1495
 3525WAT     H110977   0.595   6.265   3.306 -1.8621  1.5609 -0.1343
 3525WAT     H210978   0.607   6.383   3.211  1.4894  0.2575 -1.4788
 3526WAT      O10979   1.090   1.627   2.465 -0.1334  0.0762  0.2615
 3526WAT     H110980   1.076   1.548   2.413 -1.4440  0.1255  0.5100
 3526WAT     H210981   1.147   1.681   2.411 -0.1636 -0.5483 -0.4203
 3527WAT      O10982   2.408   1.059   0.068 -0.4996  0.7869  0.1577
 3527WAT     H110983   2.462   1.006   0.125 -1.3428 -0.8483 -0.4937
 3527WAT     H210984   2.449   1.145   0.069 -0.0099  0.5908  2.5166
 3528WAT      O10985   1.996   6.838   3.231 -0.1271 -0.2292 -0.0473
 3528WAT     H110986   2.044   6.755   3.230  0.6021  0.1903 -0.4361
 3528WAT     H210987   1.967   6.848   3.322 -0.4892 -1.0493 -0.0579
 3529WAT      O10988   4.925   4.758   0.711  0.0388  0.1449  0.2849
 3529WAT     H110989   4.863   4.702   0.664 -1.1860  2.2163 -0.6791
 3529WAT     H210990   4.872   4.801   0.778  0.7184  0.9704  0.2996
 3530WAT      O10991   1.261   6.132   3.578  0.7519  0.9043 -0.6243
 3530WAT     H110992   1.206   6.122   3.655  1.3184 -1.4518 -0.4396
 3530WAT     H210993   1.338   6.179   3.609  2.3253 -2.4630  1.1125
 3531WAT      O10994   6.078   6.507   2.229 -0.0660  0.3834  0.1646
 3531WAT     H110995   6.168   6.488   2.203  0.3699  0.6241  1.4429
 3531WAT     H210996   6.078   6.600   2.249 -1.0907  0.8370 -1.6634
 3532WAT      O10997   4.697   1.326   2.660 -0.2826 -0.3171 -0.3351
 3532WAT     H110998   4.713   1.232   2.649  2.1630 -0.2222  1.5676
 3532WAT     H210999   4.744   1.367   2.588  1.5284 -0.4466  0.7230
 3533WAT      O11000   7.600   3.923   5.411 -0.0072 -0.4533  0.3007
 3533WAT     H111001   7.633   3.984   5.344  0.0990 -0.2849  0.5062
 3533WAT     H211002   7.675   3.909   5.469  0.0822 -1.0778  0.0422
 3534WAT      O11003   3.455   1.256   2.163  0.0094  0.0046  0.4017
 3534WAT     H111004   3.487   1.272   2.251  2.4137 -1.8207 -0.0235
 3534WAT     H211005   3.514   1.307   2.106 -0.6788  0.1276 -0.2192
 3535WAT      O11006   5.969   4.487   1.748 -0.1465 -0.2560  0.6372
 3535WAT     H111007   5.902   4.542   1.709  0.0948  0.9983  1.8837
 3535WAT     H211008   5.932   4.459   1.832  0.3917 -0.5769  0.7770
 3536WAT      O11009   5.696   0.690   6.045 -0.0056 -0.3464 -0.3938
 3536WAT     H111010   5.717   0.660   6.133  0.7795 -0.3538 -0.5761
 3536WAT     H211011   5.637   0.623   6.010 -1.2001  0.2003  0.5006
 3537WAT      O11012   5.674   4.763   2.565 -0.4524  0.0877  0.2880
 3537WAT     H111013   5.651   4.838   2.510 -2.1255  0.5389  1.5219
 3537WAT     H211014   5.602   4.756   2.628  1.5208 -0.1452  2.6837
 3538WAT      O11015   1.955   2.927   1.602  0.1172  0.2768  0.3102
 3538WAT     H111016   1.955   2.989   1.675  1.2748  0.3015  0.3015
 3538WAT     H211017   1.872   2.943   1.557  0.1808  1.4808  0.5885
 3539WAT      O11018   6.370   4.324   1.620 -0.1429  0.1400 -0.2816
 3539WAT     H111019   6.315   4.279   1.685 -1.0028 -0.5086 -1.4122
 3539WAT     H211020   6.459   4.310   1.650 -0.4752 -1.0670  0.2022
 3540WAT      O11021   4.942   0.280   2.096  0.4004  0.1205  0.9940
 3540WAT     H111022   4.874   0.271   2.030  1.0551 -0.8570  0.4357
 3540WAT     H211023   4.925   0.366   2.136  0.2826  0.9691 -0.7689
 3541WAT      O11024   6.103   5.810   3.296  0.6942 -0.5201  0.2675
 3541WAT     H111025   6.025   5.800   3.241  0.4615 -1.1887  0.7129
 3541WAT     H211026   6.077   5.872   3.364  0.9890  0.3244 -0.3758
 3542WAT      O11027   1.295   7.203   3.888 -0.0554  0.2534  0.4990
 3542WAT     H111028   1.347   7.283   3.876  0.8532 -0.0567  2.1044
 3542WAT     H211029   1.303   7.183   3.981 -1.2213 -1.0851  0.3460
 3543WAT      O11030   6.071   0.660   6.215  0.2874  0.3062 -0.0162
 3543WAT     H111031   6.038   0.741   6.175 -1.2721 -0.0207  0.5531
 3543WAT     H211032   6.035   0.590   6.161  1.0597 -0.0532 -0.0887
 3544WAT      O11033   0.530   0.064   2.035  0.5197  0.3803 -0.0003
 3544WAT     H111034   0.565   0.048   2.122 -0.7751  0.3390  0.5375
 3544WAT     H211035   0.538   0.159   2.022  0.4752  0.4209  0.2734
 3545WAT      O11036   5.564   5.582   0.752 -0.5529  0.4813 -0.0502
 3545WAT     H111037   5.479   5.555   0.717  0.7145 -0.4379 -2.7444
 3545WAT     H211038   5.590   5.512   0.811 -2.0324  1.2430  1.5922
 3546WAT      O11039   2.477   3.623   1.257 -0.0530 -0.1148  0.2731
 3546WAT     H111040   2.443   3.713   1.260 -0.8002 -0.4081  1.2003
 3546WAT     H211041   2.459   3.594   1.168  1.3975  1.0809 -0.4595
 3547WAT      O11042   4.035   2.948   2.490  0.0660 -0.1210  0.3704
 3547WAT     H111043   4.111   3.003   2.471  0.7584 -1.5701 -1.3393
 3547WAT     H211044   4.017   2.963   2.583  1.0512  1.9192  0.2834
 3548WAT      O11045   6.872   3.286   1.147 -0.0620  0.2084 -0.4205
 3548WAT     H111046   6.782   3.317   1.135 -0.5781 -1.0480  0.0265
 3548WAT     H211047   6.925   3.366   1.151 -1.2671  1.0091  0.1786
 3549WAT      O11048   3.451   1.375   3.398  0.0482  0.2732  0.2617
 3549WAT     H111049   3.535   1.394   3.441  0.6078 -1.8160  0.1961
 3549WAT     H211050   3.466   1.292   3.352 -1.3240  1.1348 -1.8590
 3550WAT      O11051   2.520   6.659   0.945  0.1399  0.5785 -0.5284
 3550WAT     H111052   2.542   6.654   1.038 -0.1426  0.0319 -0.4868
 3550WAT     H211053   2.547   6.574   0.910 -0.2723  0.5680 -0.8290
 3551WAT      O11054   4.413   1.121   3.111 -0.0740 -0.4803 -0.0233
 3551WAT     H111055   4.339   1.158   3.064 -1.0750 -0.7317  1.2716
 3551WAT     H211056   4.386   1.031   3.130  0.1152 -0.2692  1.3451
 3552WAT      O11057   0.925   3.862   1.378  0.2805 -0.3866 -0.6519
 3552WAT     H111058   0.882   3.851   1.294 -0.7060 -0.2873 -0.1805
 3552WAT     H211059   0.859   3.835   1.443  0.8285  0.0387  0.1046
 3553WAT      O11060   5.086   2.115   0.224  0.3623 -0.4864 -0.3145
 3553WAT     H111061   5.112   2.024   0.238 -0.1563 -0.4791  0.7575
 3553WAT     H211062   5.148   2.147   0.159  0.0131 -1.8566 -1.3798
 3554WAT      O11063   5.189   6.617   0.324 -0.2777 -0.2053  0.4287
 3554WAT     H111064   5.254   6.677   0.360 -1.7812  0.5569  2.0415
 3554WAT     H211065   5.227   6.586   0.242  2.5815 -0.6994  1.8473
 3555WAT      O11066   7.129   0.826   3.070 -0.3297 -0.2144  0.5045
 3555WAT     H111067   7.073   0.765   3.117  0.2231 -1.1204  0.0130
 3555WAT     H211068   7.218   0.802   3.095  0.0126 -1.0648 -1.3517
 3556WAT      O11069   0.493   1.364   2.675 -0.5741 -0.8893  0.0519
 3556WAT     H111070   0.506   1.456   2.700  1.0149 -1.3988  1.3019
 3556WAT     H211071   0.413   1.338   2.720 -0.3959 -0.4251  0.6531
 3557WAT      O11072   7.062   0.548   3.504 -0.2558  0.2180 -0.0781
 3557WAT     H111073   7.065   0.466   3.455 -0.4339  0.2459 -0.1370
 3557WAT     H211074   7.101   0.526   3.589  0.5516  0.3074 -0.4247
 3558WAT      O11075   1.822   0.635   4.667 -0.0845 -0.1809 -0.0774
 3558WAT     H111076   1.728   0.621   4.679  0.1809 -1.1227  1.0476
 3558WAT     H211077   1.849   0.565   4.609  0.1251 -0.6103  0.5333
 3559WAT      O11078   3.418   5.573   0.945  0.0814  0.5132  0.2053
 3559WAT     H111079   3.376   5.636   0.887 -0.5075 -1.6608 -1.9546
 3559WAT     H211080   3.510   5.601   0.948 -0.3517  1.9999  0.1260
 3560WAT      O11081   5.612   4.085   4.618 -0.0564 -0.0840  0.4483
 3560WAT     H111082   5.602   4.026   4.544 -0.5626 -0.4912  0.8293
 3560WAT     H211083   5.707   4.093   4.630  0.1242  1.7217 -1.5793
 3561WAT      O11084   7.607   3.243   4.699  0.1841 -0.5899 -0.5239
 3561WAT     H111085   7.598   3.326   4.745  1.1320 -0.5018 -0.4818
 3561WAT     H211086   7.576   3.177   4.761  2.3599 -0.5776  0.6583
 3562WAT      O11087   5.201   1.737   2.356  0.0304 -0.4600  0.4814
 3562WAT     H111088   5.215   1.736   2.450  0.1320  2.0613  0.5469
 3562WAT     H211089   5.186   1.645   2.333 -0.4637 -1.0699  2.9984
 3563WAT      O11090   6.821   2.585   2.559  0.2244  0.5983 -0.8195
 3563WAT     H111091   6.843   2.497   2.587  0.4430  1.0972  0.6904
 3563WAT     H211092   6.885   2.641   2.604  0.2922  1.5007 -1.9956
 3564WAT      O11093   1.206   1.088   2.192  0.2637 -0.9690 -0.4620
 3564WAT     H111094   1.299   1.093   2.214  0.5394 -0.0618 -1.6727
 3564WAT     H211095   1.160   1.105   2.274  1.1700 -1.3282  0.1288
 3565WAT      O11096   1.508   0.621   5.468 -0.1018 -0.0093  0.0101
 3565WAT     H111097   1.598   0.601   5.441  1.3554  2.7144  2.2501
 3565WAT     H211098   1.492   0.564   5.543  0.0067 -0.0918 -0.0296
 3566WAT      O11099   1.347   6.047   5.889  0.0323 -0.3630 -0.1447
 3566WAT     H111100   1.433   6.038   5.930  0.5170 -0.8897 -1.2358
 3566WAT     H211101   1.291   5.986   5.935 -0.3997  1.6016  2.1395
 3567WAT      O11102   1.099   5.980   0.786  0.1545  0.1762  0.5655
 3567WAT     H111103   1.141   5.947   0.865 -0.5337  2.0838  1.8059
 3567WAT     H211104   1.041   6.050   0.817 -3.3840 -1.7240 -1.1208
 3568WAT      O11105   7.396   1.436   0.246  0.0103 -0.0743 -0.0931
 3568WAT     H111106   7.462   1.392   0.299 -1.0734 -0.7280  0.7549
 3568WAT     H211107   7.344   1.486   0.309 -2.5472 -2.4209 -0.1408
 3569WAT      O11108   2.293   5.413   2.313 -0.3264  1.0675 -0.3474
 3569WAT     H111109   2.363   5.389   2.252 -2.3077  0.1636 -2.4331
 3569WAT     H211110   2.292   5.343   2.378 -1.0318 -0.4834 -1.9348
 3570WAT      O11111   2.208   3.174   4.899  0.1757  0.8690 -0.0520
 3570WAT     H111112   2.159   3.182   4.817  0.2718 -0.2451 -0.2448
 3570WAT     H211113   2.299   3.186   4.873  0.0438  2.8801  0.2966
 3571WAT      O11114   5.911   4.184   5.074 -0.7119 -0.1214  0.3954
 3571WAT     H111115   5.996   4.221   5.100 -0.1561 -0.8057 -0.3614
 3571WAT     H211116   5.853   4.260   5.066 -0.2934  0.3128  1.3553
 3572WAT      O11117   4.489   6.297   6.124  0.1837 -0.3362 -0.0809
 3572WAT     H111118   4.578   6.271   6.149  0.1899 -0.2686 -0.0359
 3572WAT     H211119   4.433   6.254   6.188  0.2628  0.7061  0.7043
 3573WAT      O11120   6.500   6.647   0.274 -0.3226 -0.1401 -0.0326
 3573WAT     H111121   6.414   6.627   0.238  0.1925 -2.3190 -0.1914
 3573WAT     H211122   6.502   6.603   0.359  0.4586  0.2876  0.1852
 3574WAT      O11123   3.578   4.641   5.755  0.2286  0.2113 -0.2279
 3574WAT     H111124   3.592   4.736   5.760  0.8673  0.1757 -1.1842
 3574WAT     H211125   3.626   4.606   5.831 -1.2982  0.7545  1.0452
 3575WAT      O11126   6.568   5.782   4.480  0.0852 -0.4513 -0.0362
 3575WAT     H111127   6.618   5.804   4.559 -2.1785  1.5895  0.9387
 3575WAT     H211128   6.479   5.769   4.511 -0.4642 -1.8785 -2.0071
 3576WAT      O11129   3.583   6.582   2.371 -0.3902  0.3632 -0.2763
 3576WAT     H111130   3.556   6.586   2.463 -1.6062  0.9351 -0.6488
 3576WAT     H211131   3.544   6.502   2.338  0.2104  0.0547 -0.2625
 3577WAT      O11132   1.710   3.784   3.414  0.0769  0.2174 -0.1651
 3577WAT     H111133   1.768   3.713   3.387  0.9544  1.1354 -0.7547
 3577WAT     H211134   1.677   3.757   3.499  1.5918 -0.2209  0.3140
 3578WAT      O11135   3.000   6.485   3.222  0.0538 -0.6373  0.1630
 3578WAT     H111136   3.021   6.401   3.182  2.0084  0.3790 -1.1337
 3578WAT     H211137   3.059   6.491   3.297  1.5920  0.4340 -1.0384
 3579WAT      O11138   6.149   4.456   0.791 -0.7394 -0.1100 -0.2660
 3579WAT     H111139   6.127   4.389   0.855 -1.4198  0.8556  0.5456
 3579WAT     H211140   6.234   4.490   0.819  0.2339 -1.4962 -1.4295
 3580WAT      O11141   0.969   6.404   6.017 -0.4873  0.3064 -0.3232
 3580WAT     H111142   0.966   6.311   6.040  1.5106  0.2458 -0.1067
 3580WAT     H211143   0.878   6.433   6.022 -0.7367 -0.6052  3.8382
 3581WAT      O11144   1.241   7.047   3.036 -0.1048  0.2951  0.3649
 3581WAT     H111145   1.170   7.049   2.972 -1.2365 -1.4688  1.4889
 3581WAT     H211146   1.198   7.020   3.117  1.8528 -0.7841  1.0849
 3582WAT      O11147   1.114   4.968   4.176  0.2554  0.2188  0.2499
 3582WAT     H111148   1.058   4.934   4.106  0.6471 -0.8102  0.4291
 3582WAT     H211149   1.173   5.030   4.131  1.0560 -1.0404 -0.5036
 3583WAT      O11150   5.432   2.868   2.900  0.2105  0.0790  0.0315
 3583WAT     H111151   5.454   2.911   2.817 -1.6973  2.0016  0.4384
 3583WAT     H211152   5.516   2.858   2.945  1.0019  1.2015 -1.1171
 3584WAT      O11153   6.267   2.776   0.400 -0.0692 -0.2009 -0.3043
 3584WAT     H111154   6.239   2.793   0.490 -2.1239  0.2148 -0.9788
 3584WAT     H211155   6.362   2.765   0.406 -0.3272 -1.9185  2.1771
 3585WAT      O11156   5.191   3.198   4.892 -0.0342  0.0522  0.3893
 3585WAT     H111157   5.247   3.122   4.875 -0.0722 -0.0748  0.8232
 3585WAT     H211158   5.102   3.164   4.884 -0.0708  0.4765 -1.3084
 3586WAT      O11159   0.852   0.318   2.967 -0.0809  0.1557  0.1153
 3586WAT     H111160   0.836   0.397   2.916  1.4441  0.7286  0.4781
 3586WAT     H211161   0.922   0.272   2.921  1.2834  0.6584  1.5994
 3587WAT      O11162   7.216   1.215   6.168  0.1384  0.4892 -0.5224
 3587WAT     H111163   7.149   1.283   6.168  0.8995  1.3022  1.1772
 3587WAT     H211164   7.209   1.175   6.255  0.6086 -0.6941 -1.0048
 3588WAT      O11165   4.652   6.749   5.108  0.6483  0.2974  0.0757
 3588WAT     H111166   4.569   6.798   5.110  0.2266 -0.3601 -0.7000
 3588WAT     H211167   4.698   6.778   5.187 -0.3831  0.5706  0.6038
 3589WAT      O11168   6.279   1.804   5.712  0.1664  0.3858 -0.0539
 3589WAT     H111169   6.340   1.790   5.640  0.3788  0.2452  0.1507
 3589WAT     H211170   6.335   1.813   5.789  0.0007  1.6663 -0.0663
 3590WAT      O11171   3.305   2.203   3.343  0.2319 -0.0217 -0.1850
 3590WAT     H111172   3.385   2.213   3.396  2.0546  0.3006 -2.8013
 3590WAT     H211173   3.236   2.243   3.396  2.4133  2.6371  0.8737
 3591WAT      O11174   4.778   0.025   6.130 -0.4989 -0.2688  0.3454
 3591WAT     H111175   4.852   0.025   6.069 -1.8280  1.7575 -1.3895
 3591WAT     H211176   4.818   0.003   6.215  1.7816 -0.9390 -0.7981
 3592WAT      O11177   1.038   3.269   6.037  0.7163  0.1842  0.0839
 3592WAT     H111178   1.032   3.292   5.944  1.9670  0.1385 -0.0255
 3592WAT     H211179   1.070   3.349   6.079  0.6137  0.0623  0.3936
 3593WAT      O11180   1.418   3.528   2.962  0.4780  0.0839  0.2076
 3593WAT     H111181   1.452   3.520   3.051  1.8422  0.5991 -0.2424
 3593WAT     H211182   1.461   3.605   2.926 -0.0047 -0.1530 -0.9322
 3594WAT      O11183   7.165   6.148   1.283 -0.7282 -0.2836 -0.1780
 3594WAT     H111184   7.249   6.123   1.245 -0.3937 -0.7750  0.8464
 3594WAT     H211185   7.145   6.079   1.346 -1.0832  0.6769  0.8027
 3595WAT      O11186   6.260   1.388   5.109 -0.7986  0.2857 -0.3250
 3595WAT     H111187   6.275   1.294   5.102 -1.0258 -0.3526  4.3007
 3595WAT     H211188   6.347   1.426   5.120 -0.8598  0.1519  0.7381
 3596WAT      O11189   7.316   6.008   4.938 -0.3998  0.6084  0.8530
 3596WAT     H111190   7.296   6.101   4.934 -0.2011  0.7417  2.4504
 3596WAT     H211191   7.397   5.999   4.888 -0.8918  1.1398 -0.0556
 3597WAT      O11192   3.050   0.569   0.402  0.2324 -0.2706 -0.0598
 3597WAT     H111193   3.108   0.495   0.416 -1.2372 -1.6213 -0.8306
 3597WAT     H211194   3.012   0.586   0.489  0.9238 -0.0949  0.2135
 3598WAT      O11195   1.577   5.991   5.719 -0.0852  0.0973 -0.4755
 3598WAT     H111196   1.593   6.075   5.761 -0.8215  0.5559 -1.0825
 3598WAT     H211197   1.619   5.999   5.633 -2.0189  0.6829 -1.4067
 3599WAT      O11198   5.901   5.458   0.136 -0.3933 -0.2149 -0.5828
 3599WAT     H111199   5.995   5.455   0.123 -0.2664 -0.8559  0.3311
 3599WAT     H211200   5.885   5.538   0.186 -0.3087 -0.1826 -0.6093
 3600WAT      O11201   7.463   1.881   0.881  0.8611 -0.3513  0.2927
 3600WAT     H111202   7.444   1.848   0.793 -1.3655 -1.2243  1.0497
 3600WAT     H211203   7.502   1.967   0.866 -1.4147  0.4586 -1.5501
 3601WAT      O11204   6.208   5.526   4.378  0.0284  0.0302  0.3206
 3601WAT     H111205   6.298   5.549   4.403  0.4622 -0.5868 -0.6130
 3601WAT     H211206   6.184   5.592   4.313 -0.5408  0.7293  1.2162
 3602WAT      O11207   6.655   2.246   0.822  0.1521 -0.3037 -0.0261
 3602WAT     H111208   6.734   2.243   0.767 -0.0877  3.2435 -0.8575
 3602WAT     H211209   6.641   2.156   0.849  3.4780 -1.3703 -1.2758
 3603WAT      O11210   1.985   5.374   6.242  0.2390  0.3347 -0.4587
 3603WAT     H111211   2.080   5.390   6.247 -0.1212  2.5517  0.5650
 3603WAT     H211212   1.964   5.330   6.324  0.4095 -0.3875 -0.7985
 3604WAT      O11213   5.805   2.253   5.661  0.5584 -0.1996  0.0320
 3604WAT     H111214   5.757   2.327   5.698  0.3164  1.9323 -3.9382
 3604WAT     H211215   5.783   2.179   5.718 -2.5339  1.9044  1.8969
 3605WAT      O11216   4.552   4.637   2.330  0.1189  0.0217 -0.0607
 3605WAT     H111217   4.562   4.545   2.305  1.9699 -0.0673  0.8165
 3605WAT     H211218   4.531   4.635   2.424  0.2877  0.4832 -0.0064
 3606WAT      O11219   7.598   5.329   1.789 -0.1389  0.1153  0.1708
 3606WAT     H111220   7.507   5.353   1.773 -0.0302 -0.2942 -1.2556
 3606WAT     H211221   7.617   5.362   1.877 -1.0445  2.0034 -0.2895
 3607WAT      O11222   1.902   3.643   5.405  0.2634  0.0584 -0.1059
 3607WAT     H111223   1.863   3.705   5.467  0.1676 -0.2293  0.1276
 3607WAT     H211224   1.959   3.588   5.460 -1.2791 -1.4486  0.0859
 3608WAT      O11225   6.707   5.325   2.234 -0.5076  0.0913 -0.6146
 3608WAT     H111226   6.678   5.334   2.325 -1.5230 -0.4029 -0.8743
 3608WAT     H211227   6.629   5.298   2.187  0.2688 -0.7317 -1.4568
 3609WAT      O11228   3.880   5.419   0.603 -0.3568 -0.5796 -0.4516
 3609WAT     H111229   3.844   5.335   0.630  0.9753 -0.7931  0.7684
 3609WAT     H211230   3.849   5.481   0.668 -0.2900 -0.3638 -0.6234
 3610WAT      O11231   6.444   0.166   6.105 -0.0262  0.1859  0.1522
 3610WAT     H111232   6.478   0.254   6.089  1.6691 -0.5280 -0.4087
 3610WAT     H211233   6.462   0.150   6.198 -1.7918  1.0004  0.6656
 3611WAT      O11234   0.668   4.211   5.179  0.7039  0.1838  0.4362
 3611WAT     H111235   0.763   4.196   5.182  1.3308  3.2909  0.1380
 3611WAT     H211236   0.638   4.196   5.269  1.0982 -2.4301  0.2038
 3612WAT      O11237   1.578   1.834   5.573 -0.3802 -0.8509 -0.2824
 3612WAT     H111238   1.573   1.927   5.593 -2.5750 -0.4484 -2.2832
 3612WAT     H211239   1.558   1.791   5.656  0.7300  0.4223  0.6876
 3613WAT      O11240   4.388   7.142   3.593 -0.3830  0.3098  0.0438
 3613WAT     H111241   4.299   7.112   3.613 -0.2365  0.0871  0.3675
 3613WAT     H211242   4.423   7.171   3.677  0.5148 -1.3602  0.2762
 3614WAT      O11243   5.820   2.589   4.657 -0.3405 -0.5151  0.7463
 3614WAT     H111244   5.892   2.650   4.643 -2.1690  1.5279 -0.3875
 3614WAT     H211245   5.858   2.503   4.642  1.5464  0.5691 -1.2634
 3615WAT      O11246   7.242   6.791   2.099 -0.1152  0.0251  0.8942
 3615WAT     H111247   7.167   6.842   2.128  0.1216  0.3422  0.9614
 3615WAT     H211248   7.214   6.700   2.106 -0.9914  0.1693 -0.4661
 3616WAT      O11249   0.017   1.171   2.789 -0.4031 -0.1641  0.4134
 3616WAT     H111250  -0.007   1.168   2.882 -2.9146 -0.5375 -0.1851
 3616WAT     H211251  -0.052   1.222   2.748  0.0434 -0.9666 -1.4301
 3617WAT      O11252   4.433   0.996   4.107 -0.2280 -0.1845  0.2451
 3617WAT     H111253   4.356   0.941   4.122  0.2256 -0.2756  2.5542
 3617WAT     H211254   4.400   1.070   4.056 -1.4380 -1.1163 -0.3936
 3618WAT      O11255   4.167   1.672   5.298 -0.6752 -0.3116 -0.1770
 3618WAT     H111256   4.123   1.597   5.338  3.0516 -2.4346  0.3737
 3618WAT     H211257   4.181   1.646   5.207  2.0634 -1.1597  0.3954
 3619WAT      O11258   5.368   5.966   2.695  0.0339  1.3986 -0.5406
 3619WAT     H111259   5.452   6.011   2.689 -0.0470  1.8241  1.0752
 3619WAT     H211260   5.344   5.972   2.787 -0.8245 -0.4421 -0.5940
 3620WAT      O11261   7.566   5.461   4.001  0.6796 -0.1300  0.1441
 3620WAT     H111262   7.551   5.555   4.015 -1.3071  0.3242 -3.5874
 3620WAT     H211263   7.479   5.422   4.008  1.3925 -1.6312  1.0175
 3621WAT      O11264   6.595   2.324   0.129 -0.4976 -0.3338 -0.1295
 3621WAT     H111265   6.514   2.277   0.113 -0.9641  0.7550 -1.1177
 3621WAT     H211266   6.569   2.415   0.140  0.4151 -0.2258  1.4482
 3622WAT      O11267   0.577   1.255   3.420 -0.1020  0.0842 -0.5855
 3622WAT     H111268   0.588   1.343   3.386 -0.6389 -0.3015 -1.8209
 3622WAT     H211269   0.483   1.238   3.412  0.4195 -2.3195 -5.0219
 3623WAT      O11270   6.584   3.708   2.335 -0.2860 -0.4952  0.4764
 3623WAT     H111271   6.659   3.671   2.382  0.1209 -2.6201 -1.6298
 3623WAT     H211272   6.517   3.640   2.341 -1.0712  0.2354  0.0686
 3624WAT      O11273   1.597   6.632   5.963  0.2513 -0.4935  0.0594
 3624WAT     H111274   1.645   6.710   5.935 -0.8529 -0.0350 -0.6198
 3624WAT     H211275   1.521   6.666   6.010 -1.4406 -1.0165 -2.1043
 3625WAT      O11276   4.021   4.571   2.337  0.0469  0.1350  0.4562
 3625WAT     H111277   4.004   4.659   2.371 -0.8785 -0.3733  1.3446
 3625WAT     H211278   4.045   4.520   2.414  0.6816 -0.3874 -0.0714
 3626WAT      O11279   7.226   3.984   0.407 -0.4319 -0.3328 -0.3462
 3626WAT     H111280   7.294   4.051   0.415  1.3515 -2.0936 -0.0514
 3626WAT     H211281   7.199   3.965   0.497 -0.8231 -0.1257 -0.4183
 3627WAT      O11282   0.404   5.145   2.707 -0.1606 -0.3167 -0.2201
 3627WAT     H111283   0.418   5.230   2.749 -0.9990 -0.2279 -0.0877
 3627WAT     H211284   0.435   5.081   2.771 -2.7027 -0.2580  1.2431
 3628WAT      O11285   3.510   4.458   0.277  0.7508 -0.1911 -0.2930
 3628WAT     H111286   3.498   4.520   0.205 -1.0191 -0.3421 -0.1697
 3628WAT     H211287   3.444   4.483   0.341  1.4902 -0.8351  0.7445
 3629WAT      O11288   1.879   2.042   3.483 -0.0871  0.2796 -0.5217
 3629WAT     H111289   1.899   1.950   3.464 -1.7942 -0.0710 -0.7415
 3629WAT     H211290   1.815   2.067   3.417  0.4883  1.6960 -0.5675
 3630WAT      O11291   4.706   2.693   0.805  0.2203 -0.3252  0.2383
 3630WAT     H111292   4.651   2.621   0.836  1.8401 -0.7370  2.4342
 3630WAT     H211293   4.694   2.762   0.871  0.4302  0.5385 -0.6060
 3631WAT      O11294   0.615   2.393   2.775 -0.1709 -0.2777  0.1067
 3631WAT     H111295   0.612   2.326   2.707 -1.6462  0.4138 -0.5615
 3631WAT     H211296   0.526   2.396   2.810  0.1123  0.6432  0.7992
 3632WAT      O11297   4.924   3.181   1.619  0.2988 -0.2521  0.6085
 3632WAT     H111298   4.955   3.095   1.646  1.1081  0.2570  1.3578
 3632WAT     H211299   4.834   3.186   1.652 -0.1982 -1.2701 -0.5167
 3633WAT      O11300   2.304   2.165   5.552  0.5323 -0.2610  0.2166
 3633WAT     H111301   2.323   2.077   5.519  1.2568 -0.0711  0.1138
 3633WAT     H211302   2.288   2.152   5.645  1.0858 -0.4444  0.2900
 3634WAT      O11303   5.896   1.976   2.183  0.4840  0.0626  0.2846
 3634WAT     H111304   5.825   1.927   2.223  1.3973 -2.2099 -0.6904
 3634WAT     H211305   5.966   1.976   2.248  0.1038  1.1320  0.7221
 3635WAT      O11306   3.415   3.780   3.291 -0.0399 -0.0168 -0.0017
 3635WAT     H111307   3.405   3.746   3.380  1.3929 -2.4395 -0.6555
 3635WAT     H211308   3.367   3.717   3.236  0.8492  0.2299 -1.0986
 3636WAT      O11309   4.652   6.630   5.937  0.3799  0.6065  0.1583
 3636WAT     H111310   4.602   6.711   5.926  0.3768  0.5293 -0.3794
 3636WAT     H211311   4.613   6.588   6.014  0.1793  0.9599  0.2509
 3637WAT      O11312   4.046   3.976   4.152 -0.4854  0.5986  0.1207
 3637WAT     H111313   4.073   3.954   4.241  0.4433  2.0430  0.2389
 3637WAT     H211314   3.952   3.992   4.158 -0.5425  0.0460  0.7056
 3638WAT      O11315   4.313   1.179   0.786  0.5681 -0.1128  0.0722
 3638WAT     H111316   4.277   1.252   0.836 -0.1506 -0.2304 -0.2501
 3638WAT     H211317   4.294   1.102   0.838 -1.7192 -0.4335 -1.1082
 3639WAT      O11318   4.303   5.486   1.936 -0.2286 -0.1836 -0.6491
 3639WAT     H111319   4.217   5.510   1.971  0.6134  1.1509  0.6552
 3639WAT     H211320   4.312   5.393   1.953  0.5019  0.5144  3.8008
 3640WAT      O11321   6.920   6.781   2.694 -0.3443  0.0355  0.4537
 3640WAT     H111322   6.897   6.711   2.755  1.7948 -0.5333  0.7033
 3640WAT     H211323   6.866   6.765   2.617 -0.8082 -1.1292  1.0008
 3641WAT      O11324   1.432   6.542   3.297 -0.1454 -0.4903 -0.3696
 3641WAT     H111325   1.421   6.449   3.317  1.3008 -0.8622 -1.1800
 3641WAT     H211326   1.522   6.549   3.266 -0.0304  1.2981  0.2594
 3642WAT      O11327   0.941   4.658   3.735  0.4895 -0.1485  0.5941
 3642WAT     H111328   1.030   4.625   3.722  0.3289 -0.7944  1.1165
 3642WAT     H211329   0.889   4.580   3.752 -0.1904  0.2245  0.2439
 3643WAT      O11330   5.451   0.699   2.055 -0.6652  0.4314  0.1719
 3643WAT     H111331   5.447   0.611   2.017  0.1257 -0.5835  2.3100
 3643WAT     H211332   5.515   0.745   2.002 -0.0850 -0.7170 -0.1510
 3644WAT      O11333   2.104   7.056   4.428 -0.1775 -0.6457  0.0587
 3644WAT     H111334   2.048   7.058   4.506 -0.3993  1.0628 -0.1226
 3644WAT     H211335   2.057   7.106   4.363  0.7479 -0.7084 -0.6789
 3645WAT      O11336   7.229   2.345   2.087  0.1280 -0.1978 -0.7672
 3645WAT     H111337   7.312   2.363   2.044 -0.1656  0.8833 -0.9079
 3645WAT     H211338   7.192   2.431   2.106  0.2755 -0.6164  1.7369
 3646WAT      O11339   3.853   6.520   5.244  0.2453  0.5267 -0.1928
 3646WAT     H111340   3.932   6.568   5.217 -1.2454  2.9755 -0.4963
 3646WAT     H211341   3.883   6.464   5.316  1.8898  2.9661  1.1690
 3647WAT      O11342   6.028   6.960   3.267 -0.3670  0.2757  0.3451
 3647WAT     H111343   6.122   6.961   3.286 -0.3005  2.3283  0.1051
 3647WAT     H211344   5.987   6.968   3.353 -0.2971  0.3344  0.3736
 3648WAT      O11345   5.836   5.722   3.221  0.0515  0.1807 -0.3883
 3648WAT     H111346   5.820   5.694   3.311  1.0772  1.5330  0.2529
 3648WAT     H211347   5.837   5.641   3.170  4.1728 -1.2523  1.5300
 3649WAT      O11348   4.093   3.144   1.141 -0.9830  0.3091 -0.0606
 3649WAT     H111349   4.071   3.053   1.162  0.4943  0.3142  1.6883
 3649WAT     H211350   4.038   3.196   1.199 -0.1584  0.4556  0.6037
 3650WAT      O11351   7.270   6.934   1.823  0.2625  0.0233  0.2565
 3650WAT     H111352   7.363   6.915   1.816  0.2779  0.3365 -0.5325
 3650WAT     H211353   7.256   6.953   1.916  1.1402  0.7469  0.2520
 3651WAT      O11354   0.927   5.743   3.131  0.3287 -0.0245 -0.0826
 3651WAT     H111355   1.022   5.730   3.124  0.5834  0.3058  2.0585
 3651WAT     H211356   0.911   5.823   3.081  1.0666 -0.4324 -1.0031
 3652WAT      O11357   3.394   6.344   4.070  0.3701 -0.2155  0.3266
 3652WAT     H111358   3.386   6.266   4.125 -1.1275  0.4486  1.1057
 3652WAT     H211359   3.404   6.416   4.131 -0.3717  0.4302 -0.2774
 3653WAT      O11360   5.207   2.014   3.690  0.4126  0.2150  0.4311
 3653WAT     H111361   5.233   2.019   3.782 -0.7815 -3.0664  1.0948
 3653WAT     H211362   5.284   1.979   3.645  0.4292  0.1768  0.4890
 3654WAT      O11363   2.557   5.583   4.646  0.3205 -0.0414  0.2002
 3654WAT     H111364   2.499   5.600   4.721  1.0956 -0.6536  0.9670
 3654WAT     H211365   2.644   5.606   4.679  0.3933  2.4496 -1.4345
 3655WAT      O11366   3.777   1.874   2.206 -0.6481  0.3732  0.3673
 3655WAT     H111367   3.831   1.809   2.161  0.6990  1.4701  0.3294
 3655WAT     H211368   3.799   1.957   2.164 -0.8617  1.1382  1.6928
 3656WAT      O11369   3.029   7.093   2.934  0.2076  0.3095  0.3699
 3656WAT     H111370   2.963   7.029   2.961  0.7548 -0.5981 -0.3630
 3656WAT     H211371   3.024   7.162   2.999 -0.3504 -0.5238  1.2328
 3657WAT      O11372   3.370   3.770   0.059  0.2534  0.0088  0.1504
 3657WAT     H111373   3.409   3.772   0.146  0.3045  1.0204  0.1111
 3657WAT     H211374   3.444   3.755   0.000  0.3461  0.2260  0.2109
 3658WAT      O11375   3.934   6.223   1.937 -0.0403 -0.1682  0.3075
 3658WAT     H111376   3.939   6.265   1.851  0.2050 -1.9104 -0.5760
 3658WAT     H211377   3.980   6.283   1.995 -1.1862  1.5967 -0.5345
 3659WAT      O11378   1.751   6.239   3.661 -0.3797 -0.0637  0.1752
 3659WAT     H111379   1.843   6.215   3.678 -0.7269 -1.9197 -0.3673
 3659WAT     H211380   1.731   6.305   3.728  0.8224 -0.9580  1.4762
 3660WAT      O11381   7.434   4.457   3.696  0.4109  0.3828  0.4377
 3660WAT     H111382   7.434   4.380   3.753  2.0028 -0.1513 -0.2433
 3660WAT     H211383   7.526   4.471   3.673 -0.1404  0.7763 -1.7428
 3661WAT      O11384   6.976   5.661   0.878  0.0006  0.0254  0.2423
 3661WAT     H111385   6.961   5.685   0.787 -0.2105 -1.5372 -0.1714
 3661WAT     H211386   6.895   5.617   0.905  0.4244 -0.3956  0.8741
 3662WAT      O11387   6.028   2.491   2.897 -0.4487 -0.1608  0.5898
 3662WAT     H111388   5.976   2.491   2.977 -0.9618  1.3254  0.2924
 3662WAT     H211389   6.111   2.533   2.922 -0.9915  1.2372  0.1526
 3663WAT      O11390   3.517   0.645   0.035 -0.1865  0.5018 -0.4568
 3663WAT     H111391   3.464   0.607   0.104 -0.9287 -0.1077 -1.3367
 3663WAT     H211392   3.605   0.651   0.073 -0.4985 -0.1681  0.4063
 3664WAT      O11393   2.816   6.243   2.837  0.3144 -0.1498  0.0435
 3664WAT     H111394   2.732   6.273   2.873 -0.8523 -1.9968 -1.0250
 3664WAT     H211395   2.864   6.212   2.914  0.2906  1.4067  0.7414
 3665WAT      O11396   2.211   2.567   0.424 -0.1716  0.1207  0.0077
 3665WAT     H111397   2.221   2.579   0.518  0.2406  0.5026 -0.0854
 3665WAT     H211398   2.204   2.656   0.389  0.1018 -0.0036 -0.3681
 3666WAT      O11399   5.134   0.677   1.087  0.2454 -0.5103 -0.3880
 3666WAT     H111400   5.143   0.751   1.027  0.0751  0.8809  1.2230
 3666WAT     H211401   5.064   0.624   1.049 -0.9204  1.1425 -0.6558
 3667WAT      O11402   4.685   5.912   3.458  0.1671  0.3447  0.0179
 3667WAT     H111403   4.606   5.864   3.486  1.0361 -0.8201  0.5605
 3667WAT     H211404   4.708   5.966   3.534  0.2123  0.2523  0.0703
 3668WAT      O11405   0.885   1.529   1.762  0.1705  0.4870  0.4841
 3668WAT     H111406   0.950   1.461   1.742  0.0697 -0.0738  1.9472
 3668WAT     H211407   0.912   1.563   1.847 -2.0665 -0.5632  1.6997
 3669WAT      O11408   4.107   3.590   3.705 -0.2544  0.4162  0.2074
 3669WAT     H111409   4.130   3.498   3.694 -0.9898  0.0909  1.2174
 3669WAT     H211410   4.190   3.636   3.704  0.2034 -0.3765  0.6371
 3670WAT      O11411   6.691   0.563   2.119 -0.2698 -0.0937  0.2784
 3670WAT     H111412   6.757   0.631   2.108 -1.1361  0.9073  1.0322
 3670WAT     H211413   6.741   0.483   2.132  0.8452  0.7863  1.7299
 3671WAT      O11414   3.979   3.214   0.119  0.2146  0.2355  0.1290
 3671WAT     H111415   4.029   3.295   0.107  0.2424  0.2453  0.3206
 3671WAT     H211416   4.045   3.149   0.144  0.0454  0.3914  1.0061
 3672WAT      O11417   0.570   5.456   4.880  0.5582 -0.2652 -0.4072
 3672WAT     H111418   0.552   5.483   4.970 -1.2040 -0.1049 -0.7727
 3672WAT     H211419   0.620   5.375   4.889 -0.8513 -1.0488  0.7478
 3673WAT      O11420   6.973   0.624   1.086 -0.2738  0.7170  0.5020
 3673WAT     H111421   7.000   0.654   0.999 -1.9796  1.1275  0.0774
 3673WAT     H211422   6.991   0.530   1.085  2.3143  1.1269  0.7606
 3674WAT      O11423   3.709   4.124   5.873  0.1931  0.1929  0.1236
 3674WAT     H111424   3.727   4.149   5.782 -0.2561  2.3794  0.5866
 3674WAT     H211425   3.772   4.055   5.892  2.0486  1.4833 -1.0512
 3675WAT      O11426   6.669   0.474   3.084  0.3934 -0.1806  0.3689
 3675WAT     H111427   6.697   0.518   3.164 -1.1000 -0.1199  0.8839
 3675WAT     H211428   6.719   0.517   3.015  1.0613  0.3638  1.1632
 3676WAT      O11429   4.812   6.725   4.878  0.0810 -0.2523  0.2488
 3676WAT     H111430   4.776   6.638   4.861 -0.3586 -0.2043  0.8955
 3676WAT     H211431   4.759   6.759   4.950 -1.0798  1.3626 -1.2798
 3677WAT      O11432   3.091   2.753   6.216  0.5666 -0.4086 -0.0395
 3677WAT     H111433   3.141   2.832   6.240  0.4615 -0.6890  1.1845
 3677WAT     H211434   3.140   2.714   6.145 -0.4695  1.8652 -2.1749
 3678WAT      O11435   5.104   0.911   3.061 -0.0819 -0.7564 -0.1314
 3678WAT     H111436   5.195   0.925   3.036 -0.1840 -2.6574 -1.8344
 3678WAT     H211437   5.103   0.919   3.157  2.2217 -2.3953  0.1018
 3679WAT      O11438   6.487   5.265   6.147  1.0132 -0.2705  0.0072
 3679WAT     H111439   6.492   5.292   6.239  0.4183 -0.0315 -0.0267
 3679WAT     H211440   6.437   5.183   6.150  1.5356 -0.5968 -0.0434
 3680WAT      O11441   0.185   2.300   5.316  0.9596 -0.1920 -0.3740
 3680WAT     H111442   0.264   2.290   5.262  0.2460 -1.0313 -1.3016
 3680WAT     H211443   0.163   2.393   5.310  1.6636 -0.0208 -0.3992
 3681WAT      O11444   3.777   1.007   5.363  0.0426 -0.2388  0.0131
 3681WAT     H111445   3.842   1.034   5.428 -0.4020 -0.4119  0.5350
 3681WAT     H211446   3.800   0.917   5.341  1.5108  0.5068 -1.7076
 3682WAT      O11447   5.668   5.322   2.006  0.2226  0.4163  0.4330
 3682WAT     H111448   5.749   5.284   2.040  1.3866  1.6411 -0.8347
 3682WAT     H211449   5.676   5.415   2.023 -2.0332  0.3442  2.4006
 3683WAT      O11450   0.875   6.689   0.766  0.4583  0.3743 -0.1334
 3683WAT     H111451   0.853   6.653   0.852 -0.0054  0.3916 -0.2421
 3683WAT     H211452   0.839   6.778   0.768 -2.0804 -0.5393 -1.3417
 3684WAT      O11453   6.518   3.317   0.227  0.0584  0.5299 -0.2695
 3684WAT     H111454   6.498   3.230   0.260  1.8194  0.3225  0.3610
 3684WAT     H211455   6.553   3.364   0.303  1.0849  1.1155 -1.0788
 3685WAT      O11456   3.403   6.077   0.384 -0.0946 -0.0000 -0.1342
 3685WAT     H111457   3.382   6.043   0.470 -0.0181 -0.1737 -0.1837
 3685WAT     H211458   3.324   6.064   0.332 -0.8435  1.9261  0.4504
 3686WAT      O11459   7.071   1.882   2.130 -0.1825 -0.2111  0.5483
 3686WAT     H111460   7.095   1.961   2.179 -3.0887  1.0180  0.1648
 3686WAT     H211461   7.101   1.810   2.185  1.3750  1.1186  1.5414
 3687WAT      O11462   4.309   4.180   5.718 -0.4827  0.3918  0.3427
 3687WAT     H111463   4.384   4.194   5.775  0.5643 -1.7147 -0.4109
 3687WAT     H211464   4.243   4.137   5.773  0.0966 -0.6182  0.2703
 3688WAT      O11465   7.086   2.153   4.634 -0.4788 -0.8374  0.6081
 3688WAT     H111466   7.033   2.208   4.692 -0.2933 -1.4515  1.3749
 3688WAT     H211467   7.173   2.153   4.673 -0.1631 -0.6913 -0.0673
 3689WAT      O11468   2.968   0.115   0.969  0.3070  0.1045 -0.0086
 3689WAT     H111469   2.904   0.046   0.955 -0.5496  0.6149  1.2153
 3689WAT     H211470   2.941   0.156   1.051  0.2850  2.4438 -1.1181
 3690WAT      O11471   5.711   2.281   4.099  0.0962  0.1614 -0.2876
 3690WAT     H111472   5.711   2.188   4.078 -1.9325  0.1420 -0.3801
 3690WAT     H211473   5.743   2.286   4.189  0.0103 -0.6587 -0.2098
 3691WAT      O11474   4.227   6.183   4.155  0.1110  0.4775 -0.3330
 3691WAT     H111475   4.267   6.150   4.235  2.7037  0.4854 -1.5162
 3691WAT     H211476   4.160   6.119   4.133 -0.2417  0.1676  1.5103
 3692WAT      O11477   2.507   6.137   3.088  0.1090 -0.1400  0.5608
 3692WAT     H111478   2.571   6.082   3.133  0.0457 -0.1150  0.6811
 3692WAT     H211479   2.434   6.143   3.148  0.4260  0.7083  0.8836
 3693WAT      O11480   1.272   0.760   5.552  0.7025  0.3766 -0.0495
 3693WAT     H111481   1.241   0.680   5.511 -1.8500  1.3786 -0.2415
 3693WAT     H211482   1.328   0.801   5.486 -1.5229  0.8634 -1.7422
 3694WAT      O11483   2.698   4.163   1.627  0.3009 -0.1871 -0.3793
 3694WAT     H111484   2.623   4.103   1.626 -0.7261  1.0016  0.5202
 3694WAT     H211485   2.732   4.157   1.716 -0.5323  1.3490  0.0828
 3695WAT      O11486   0.495   3.746   5.559  0.4786  0.3345 -0.4892
 3695WAT     H111487   0.572   3.691   5.545 -0.5206 -1.1442 -0.3446
 3695WAT     H211488   0.526   3.817   5.616  1.4741 -0.8547  0.5005
 3696WAT      O11489   0.846   2.542   5.504  0.2272  0.3100  0.0891
 3696WAT     H111490   0.775   2.606   5.513  0.9191  0.8025  3.0186
 3696WAT     H211491   0.926   2.595   5.501  0.7297 -0.3512  1.3323
 3697WAT      O11492   7.005   6.972   6.214  0.5749 -0.0201 -0.3201
 3697WAT     H111493   6.930   6.955   6.157 -1.9128 -0.3014  2.7808
 3697WAT     H211494   7.042   6.886   6.232 -1.5003 -0.5251  1.9772
 3698WAT      O11495   5.042   6.076   3.140  0.6490 -0.0184  0.0893
 3698WAT     H111496   4.958   6.120   3.147 -0.3759 -1.9697  1.1907
 3698WAT     H211497   5.086   6.095   3.223  1.1720  0.7667 -0.3672
 3699WAT      O11498   0.235   5.995   0.023  0.3267  0.2783  0.4718
 3699WAT     H111499   0.170   6.065   0.029  0.1010  0.1646 -0.4644
 3699WAT     H211500   0.273   5.989   0.111  0.4070  1.6280  0.5386
 3700WAT      O11501   6.827   4.217   3.705 -0.1061 -0.0597  0.0186
 3700WAT     H111502   6.843   4.254   3.619  2.9846  1.2279  1.0218
 3700WAT     H211503   6.884   4.141   3.710 -0.6081 -0.4037  0.7566
 3701WAT      O11504   5.966   4.728   5.572 -0.2292  0.3010 -0.9057
 3701WAT     H111505   5.976   4.793   5.641  0.5656  0.9356 -1.6022
 3701WAT     H211506   5.989   4.645   5.614 -2.6019  0.2045  0.3667
 3702WAT      O11507   5.291   5.044   3.123 -0.6289  0.4829  0.0631
 3702WAT     H111508   5.346   5.113   3.086  3.3023 -1.4941  1.6266
 3702WAT     H211509   5.295   5.059   3.217 -0.1793 -1.4749  0.3905
 3703WAT      O11510   7.083   6.423   1.704 -0.3216 -0.1024  0.4528
 3703WAT     H111511   7.123   6.337   1.688 -0.4829  0.0691 -1.0317
 3703WAT     H211512   7.148   6.486   1.672 -0.4238  0.3094  1.0428
 3704WAT      O11513   7.158   4.336   0.490 -0.0409  0.3015 -0.1107
 3704WAT     H111514   7.234   4.322   0.546  1.6556  0.2072 -2.3394
 3704WAT     H211515   7.171   4.423   0.453 -1.6115  0.7371  0.2614
 3705WAT      O11516   2.365   6.848   0.835 -0.4739  0.0392  0.1007
 3705WAT     H111517   2.396   6.774   0.886 -1.5741 -1.2401 -0.9876
 3705WAT     H211518   2.323   6.906   0.898  0.0316 -0.4717  0.9136
 3706WAT      O11519   1.198   2.357   5.523  0.0536 -0.2194 -0.0933
 3706WAT     H111520   1.156   2.295   5.583 -0.7064 -0.4510 -0.8562
 3706WAT     H211521   1.152   2.440   5.538  1.2240  0.2604  1.0973
 3707WAT      O11522   2.595   6.281   0.491 -0.6909 -0.3871  0.2364
 3707WAT     H111523   2.651   6.227   0.548 -0.4561  0.5642  0.9245
 3707WAT     H211524   2.655   6.342   0.449 -0.7316 -1.5785 -1.7069
 3708WAT      O11525   1.622   2.883   3.029  0.3034  0.2727  0.1520
 3708WAT     H111526   1.618   2.947   3.100  0.4765 -0.7170  1.0688
 3708WAT     H211527   1.552   2.821   3.047 -0.8660  1.0112 -1.5734
 3709WAT      O11528   6.058   1.912   3.566  0.2078 -0.3129 -0.7623
 3709WAT     H111529   6.023   2.001   3.565  0.1524 -0.3298 -0.2573
 3709WAT     H211530   6.129   1.915   3.630  0.6903 -0.4496 -1.2797
 3710WAT      O11531   0.646   0.270   5.202 -0.1610 -0.4190 -0.9576
 3710WAT     H111532   0.682   0.301   5.284 -2.7550 -0.5783  0.3540
 3710WAT     H211533   0.551   0.268   5.216 -0.6642 -1.1433 -3.7152
 3711WAT      O11534   0.195   6.485   5.741  0.0296 -0.6125 -0.3508
 3711WAT     H111535   0.132   6.526   5.681 -0.7870  0.1657  1.0002
 3711WAT     H211536   0.182   6.391   5.728 -0.7842 -0.4616 -0.7360
 3712WAT      O11537   0.370   5.651   5.794  0.5120 -0.0376 -0.1538
 3712WAT     H111538   0.377   5.557   5.810  0.0657 -0.2001 -0.8384
 3712WAT     H211539   0.396   5.692   5.876  1.1455 -0.7484  0.0140
 3713WAT      O11540   3.959   1.767   0.456 -0.2996 -0.5432  0.1103
 3713WAT     H111541   3.995   1.831   0.517  2.1123 -1.6723 -0.0149
 3713WAT     H211542   3.872   1.801   0.435 -0.4456  0.9038  2.6035
 3714WAT      O11543   5.256   1.517   4.334 -0.0632  0.2968  0.0683
 3714WAT     H111544   5.218   1.576   4.268  0.1064  0.4590  0.1173
 3714WAT     H211545   5.335   1.562   4.364  1.2346 -0.8860 -1.4063
 3715WAT      O11546   1.776   1.497   2.006  0.0689 -0.2521 -0.0325
 3715WAT     H111547   1.790   1.422   2.063 -1.5281 -1.3793 -1.0451
 3715WAT     H211548   1.860   1.510   1.962  0.7446 -0.5915  1.1281
 3716WAT      O11549   1.683   0.981   2.712  0.0483 -0.3978 -0.1674
 3716WAT     H111550   1.619   1.004   2.780 -0.7413  0.5144 -1.1822
 3716WAT     H211551   1.768   1.007   2.750 -0.2649 -0.7852  0.8350
 3717WAT      O11552   0.187   5.920   0.476 -0.0320 -0.4197  0.8909
 3717WAT     H111553   0.105   5.915   0.525 -0.1577 -0.8953  0.6459
 3717WAT     H211554   0.244   5.855   0.517 -0.7210 -2.0650 -0.6168
 3718WAT      O11555   6.929   3.764   0.041  0.2835  0.0808  0.2825
 3718WAT     H111556   6.854   3.736  -0.012 -0.6794 -0.9511  2.0827
 3718WAT     H211557   6.915   3.858   0.054 -0.6842 -0.0957  0.5659
 3719WAT      O11558   7.324   3.250   3.628  0.2872 -0.0598  0.1723
 3719WAT     H111559   7.357   3.277   3.542  1.5372 -0.6860  0.4274
 3719WAT     H211560   7.229   3.258   3.621  0.4204  0.8450 -0.9398
 3720WAT      O11561   6.962   0.677   3.250 -0.3584  0.3895 -0.7340
 3720WAT     H111562   7.023   0.605   3.232 -0.0136  0.2141  0.9244
 3720WAT     H211563   6.876   0.637   3.241 -0.1716 -0.3283  0.3339
 3721WAT      O11564   6.711   7.108   4.764 -0.5539 -0.5594 -0.3407
 3721WAT     H111565   6.737   7.072   4.679  0.2262 -0.4518 -0.1468
 3721WAT     H211566   6.628   7.153   4.746 -0.1342 -0.0873 -1.1608
 3722WAT      O11567   2.844   1.603   1.388 -0.0272 -0.0178  0.0079
 3722WAT     H111568   2.787   1.562   1.453 -0.1216 -0.7881 -0.5464
 3722WAT     H211569   2.792   1.676   1.354 -0.1169  0.1676  0.5446
 3723WAT      O11570   7.100   4.907   4.822  0.1359 -0.2508  0.1284
 3723WAT     H111571   7.168   4.939   4.881 -0.6085 -1.0882  1.4840
 3723WAT     H211572   7.027   4.882   4.879 -0.9130 -0.3813 -1.2021
 3724WAT      O11573   4.658   0.299   3.490 -0.4154 -0.0390 -0.9803
 3724WAT     H111574   4.602   0.316   3.566 -0.3868 -0.3362 -0.8929
 3724WAT     H211575   4.706   0.381   3.478  0.1036 -0.2166 -0.2318
 3725WAT      O11576   4.288   7.028   5.252 -0.4199  0.2173 -0.0598
 3725WAT     H111577   4.365   7.079   5.277  0.7892 -2.1329  1.3633
 3725WAT     H211578   4.231   7.032   5.329 -0.9629  0.5054 -0.4648
 3726WAT      O11579   0.842   5.697   6.227 -0.1028 -0.0888 -0.3428
 3726WAT     H111580   0.847   5.789   6.203  2.4750  0.2742  1.2405
 3726WAT     H211581   0.788   5.695   6.306 -1.0669 -0.1294 -0.9795
 3727WAT      O11582   0.689   6.483   0.379 -0.0951 -0.1084 -0.0241
 3727WAT     H111583   0.749   6.420   0.418  0.8142  1.3316  1.0148
 3727WAT     H211584   0.719   6.568   0.412 -0.8014  0.9515 -1.9574
 3728WAT      O11585   7.254   5.074   5.247  0.2689  0.1155  0.2728
 3728WAT     H111586   7.280   5.160   5.214 -2.2637  0.7456 -0.3092
 3728WAT     H211587   7.249   5.085   5.342 -1.4603  1.1173  0.1098
 3729WAT      O11588   7.296   6.683   4.419 -0.1216  0.7635  0.4201
 3729WAT     H111589   7.291   6.767   4.463 -3.0020  1.1776 -0.5411
 3729WAT     H211590   7.307   6.619   4.490 -1.5826  1.6565  1.4898
 3730WAT      O11591   1.111   1.383   4.587  0.1635 -1.0174  0.0926
 3730WAT     H111592   1.098   1.416   4.676 -1.1620 -1.0117 -0.0865
 3730WAT     H211593   1.030   1.404   4.542 -0.1540 -3.2175 -0.4453
 3731WAT      O11594   0.662   2.729   5.600  0.0123  0.5421  0.7320
 3731WAT     H111595   0.568   2.707   5.603 -0.1933  1.3848  0.7755
 3731WAT     H211596   0.664   2.815   5.558  0.8970 -0.1771 -0.7722
 3732WAT      O11597   1.579   4.972   3.626  0.2216 -0.4736 -0.7523
 3732WAT     H111598   1.659   4.978   3.574  0.4110  0.7147 -0.3523
 3732WAT     H211599   1.539   5.059   3.618 -0.4547 -0.7099 -0.0474
 3733WAT      O11600   6.455   2.190   6.178 -0.3249  0.3703 -0.0805
 3733WAT     H111601   6.453   2.095   6.164 -1.5971  0.4548 -0.6944
 3733WAT     H211602   6.545   2.209   6.203  0.0141 -0.9674 -0.1930
 3734WAT      O11603   5.477   1.502   2.946 -0.0012 -0.7248  0.3964
 3734WAT     H111604   5.492   1.567   3.014 -0.2558 -0.8598  0.5853
 3734WAT     H211605   5.382   1.490   2.946 -0.1654  0.3053 -0.9418
 3735WAT      O11606   4.067   2.910   5.110  0.4478 -0.2428 -0.6734
 3735WAT     H111607   4.062   2.915   5.014  1.1425  1.1643 -0.6619
 3735WAT     H211608   4.161   2.917   5.129  0.3169 -0.5688  0.1186
 3736WAT      O11609   7.185   3.707   2.550 -0.2961  0.0699 -0.4250
 3736WAT     H111610   7.191   3.766   2.475  0.0123  1.1170  0.4019
 3736WAT     H211611   7.269   3.660   2.550 -0.4561 -0.2203 -0.9602
 3737WAT      O11612   4.749   6.472   5.733  0.3567 -0.7192  0.7646
 3737WAT     H111613   4.837   6.493   5.764 -0.1133  0.4133  1.3934
 3737WAT     H211614   4.691   6.499   5.804 -0.6287  0.3692 -0.3971
 3738WAT      O11615   4.001   4.026   0.116  0.4377  0.0772 -0.5028
 3738WAT     H111616   3.912   3.996   0.098  0.3494 -0.4732  0.7465
 3738WAT     H211617   4.021   3.992   0.203  1.1359  1.8774  0.0837
 3739WAT      O11618   1.650   1.061   5.763 -0.3092 -0.6604  0.3276
 3739WAT     H111619   1.662   1.135   5.822 -1.8386 -0.2194  0.1448
 3739WAT     H211620   1.702   0.991   5.801  1.0801  0.4608  0.5676
 3740WAT      O11621   5.524   1.171   5.003  0.1289  0.3700 -0.3273
 3740WAT     H111622   5.572   1.099   5.042 -1.5387 -1.3670 -1.3165
 3740WAT     H211623   5.441   1.173   5.051  0.3890  2.1068  0.1315
 3741WAT      O11624   7.013   2.989   0.277 -0.6787 -0.2208  0.2258
 3741WAT     H111625   6.965   2.908   0.262  0.5422 -1.0429  0.5870
 3741WAT     H211626   7.104   2.967   0.255 -0.5361  1.4526 -1.0133
 3742WAT      O11627   1.912   5.240   2.706 -0.2236  0.4933  1.0863
 3742WAT     H111628   1.884   5.201   2.789  1.1880 -1.0212  0.8992
 3742WAT     H211629   1.942   5.328   2.730 -0.3092  0.2562  2.1112
 3743WAT      O11630   1.319   4.360   2.581  0.0130 -0.2951  0.6054
 3743WAT     H111631   1.399   4.312   2.559 -0.4018 -0.8676  0.3054
 3743WAT     H211632   1.339   4.405   2.662  1.0161  0.4769 -0.0486
 3744WAT      O11633   5.967   1.076   3.135 -0.6313  0.3053 -0.0185
 3744WAT     H111634   6.013   1.152   3.098  1.1174 -0.5327  0.3591
 3744WAT     H211635   6.019   1.052   3.212 -1.7237 -0.6864  0.4278
 3745WAT      O11636   1.395   3.402   3.890 -0.1822 -0.0288  0.2105
 3745WAT     H111637   1.458   3.383   3.959 -1.7563  1.5719  2.2062
 3745WAT     H211638   1.328   3.334   3.899 -0.5337  0.3462  0.4528
 3746WAT      O11639   0.474   5.180   4.325  0.6126  0.0628 -0.2834
 3746WAT     H111640   0.380   5.181   4.305  0.5220  0.2046  0.1432
 3746WAT     H211641   0.478   5.151   4.416  1.1035 -2.2641 -0.9771
 3747WAT      O11642   6.306   4.814   5.952 -0.0896  0.7570  0.3729
 3747WAT     H111643   6.346   4.764   6.023  1.3710  0.9660 -0.2513
 3747WAT     H211644   6.370   4.882   5.933  0.2561 -0.1381 -2.0605
 3748WAT      O11645   5.571   7.061   4.802 -0.6934  0.3690  0.2206
 3748WAT     H111646   5.620   6.980   4.819 -1.1623  0.0947  0.2592
 3748WAT     H211647   5.634   7.131   4.824 -0.1345  0.0253 -0.2518
 3749WAT      O11648   0.078   5.689   5.808  0.5693 -0.4089  0.1364
 3749WAT     H111649   0.063   5.738   5.889  2.8855  1.8220 -0.6113
 3749WAT     H211650   0.173   5.692   5.797  0.2847 -0.2218 -2.8827
 3750WAT      O11651   4.220   6.953   5.738  0.1293 -0.1293  0.2558
 3750WAT     H111652   4.133   6.981   5.767 -0.4365  1.6416 -2.7071
 3750WAT     H211653   4.243   6.881   5.797 -3.7593 -1.3457  0.5548
 3751WAT      O11654   3.115   1.402   3.840  0.0995 -0.0682  0.5952
 3751WAT     H111655   3.122   1.346   3.918  1.3539 -0.3766  0.2930
 3751WAT     H211656   3.206   1.412   3.810 -0.2790  0.7497 -0.3371
 3752WAT      O11657   1.171   4.107   4.207  0.0429  0.4415  0.1449
 3752WAT     H111658   1.133   4.087   4.292  0.0084  2.0678  0.5518
 3752WAT     H211659   1.265   4.095   4.219  0.0044  0.2966  0.3035
 3753WAT      O11660   1.480   1.708   5.810  0.1039 -0.0214  0.1007
 3753WAT     H111661   1.428   1.655   5.749  1.6362 -1.0493 -0.3715
 3753WAT     H211662   1.431   1.705   5.892 -2.8688  2.7335 -1.3628
 3754WAT      O11663   2.813   2.352   3.823 -0.0732  0.0600  0.2594
 3754WAT     H111664   2.775   2.426   3.775 -1.2123 -0.4473  0.3560
 3754WAT     H211665   2.738   2.308   3.862  0.7047 -0.4656  1.1867
 3755WAT      O11666   4.182   2.786   3.238  0.4690 -0.7603  0.2336
 3755WAT     H111667   4.113   2.802   3.302 -0.2931 -0.4435 -0.6366
 3755WAT     H211668   4.264   2.793   3.288 -0.0473  0.6759  0.9481
 3756WAT      O11669   0.845   3.154   0.176 -0.2458  0.4590 -0.0600
 3756WAT     H111670   0.801   3.072   0.156  2.4928 -1.0712 -0.2625
 3756WAT     H211671   0.780   3.222   0.156 -2.4018 -1.5986 -0.4218
 3757WAT      O11672   7.166   5.060   0.041 -0.3856  0.5497  0.0832
 3757WAT     H111673   7.253   5.032   0.069 -0.6953 -0.3746  0.1482
 3757WAT     H211674   7.117   5.071   0.123 -0.2591  1.3367  0.0607
 3758WAT      O11675   7.468   6.522   5.846  0.0167  0.1156  0.0742
 3758WAT     H111676   7.412   6.471   5.789 -2.8698  0.3920  2.4304
 3758WAT     H211677   7.411   6.590   5.882  1.5874 -0.0473  3.2579
 3759WAT      O11678   1.970   0.381   2.973  0.1877  0.1998  0.0636
 3759WAT     H111679   2.015   0.311   3.021 -0.1813 -1.0445 -1.3467
 3759WAT     H211680   1.877   0.363   2.984  0.0198  1.6986  1.4136
 3760WAT      O11681   1.367   7.165   0.314 -0.3766  0.6978  0.4507
 3760WAT     H111682   1.385   7.100   0.245 -0.7062 -0.5506  1.4991
 3760WAT     H211683   1.303   7.225   0.274 -0.2042  0.2778 -0.4886
 3761WAT      O11684   2.556   6.906   5.599 -0.3555  0.1754 -0.1201
 3761WAT     H111685   2.508   6.862   5.669 -1.2558  1.1727 -0.0859
 3761WAT     H211686   2.552   6.844   5.525 -0.3144 -0.4253  0.3679
 3762WAT      O11687   4.806   2.264   2.237 -0.4282  0.2558  0.7360
 3762WAT     H111688   4.823   2.292   2.148 -1.1456  0.0383  0.5202
 3762WAT     H211689   4.759   2.338   2.277 -0.3973  0.2226  0.8361
 3763WAT      O11690   6.427   1.212   6.008  0.4976  0.1987 -0.1652
 3763WAT     H111691   6.351   1.253   6.049 -1.0494 -2.5262 -0.1020
 3763WAT     H211692   6.477   1.177   6.082  1.0687  0.7031 -0.3008
 3764WAT      O11693   2.500   4.466   4.023  0.3187  0.3517 -0.3648
 3764WAT     H111694   2.485   4.411   3.945  0.8634  0.0434 -0.2617
 3764WAT     H211695   2.578   4.517   4.001  0.7114 -0.0297  0.1356
 3765WAT      O11696   6.052   3.602   1.620 -0.5119  0.5830 -0.0453
 3765WAT     H111697   6.111   3.670   1.652 -2.7591  1.5073  2.4523
 3765WAT     H211698   6.056   3.533   1.685 -1.8229  0.4766 -0.0463
 3766WAT      O11699   1.904   3.210   5.927 -0.1843 -0.3347  0.4954
 3766WAT     H111700   1.818   3.252   5.935 -0.0710 -0.3978  2.8808
 3766WAT     H211701   1.892   3.142   5.861 -2.1274 -0.6705  1.1268
 3767WAT      O11702   5.515   1.071   4.281 -0.2547 -0.4426 -0.4631
 3767WAT     H111703   5.440   1.124   4.307  0.1914  0.3556 -0.7685
 3767WAT     H211704   5.546   1.031   4.363 -0.5537 -0.1826 -0.2203
 3768WAT      O11705   5.149   6.720   5.547  0.7253  0.4617  0.9200
 3768WAT     H111706   5.115   6.711   5.457 -0.1294  2.1417  1.0396
 3768WAT     H211707   5.239   6.749   5.535  0.9511 -0.3315  0.6145
 3769WAT      O11708   5.020   5.881   1.510 -0.2846  0.2781 -0.3998
 3769WAT     H111709   5.013   5.879   1.606 -0.4429  0.7924 -0.4016
 3769WAT     H211710   5.095   5.937   1.492 -0.8394  0.9684 -0.6001
 3770WAT      O11711   4.282   4.785   1.608 -0.1442 -0.1043 -0.5629
 3770WAT     H111712   4.298   4.709   1.665 -0.3354 -1.8373 -2.7031
 3770WAT     H211713   4.369   4.812   1.579 -0.1603 -0.4557 -0.9497
 3771WAT      O11714   0.205   1.030   1.926 -0.1044  0.4667  0.3645
 3771WAT     H111715   0.234   1.099   1.986  0.3206  1.4151 -0.8758
 3771WAT     H211716   0.217   0.948   1.974  0.8682  1.1518  1.3101
 3772WAT      O11717   6.244   0.560   1.114 -0.4258  0.1082  0.7008
 3772WAT     H111718   6.165   0.575   1.166  0.7370  1.4291  2.1708
 3772WAT     H211719   6.316   0.579   1.173  0.9734  1.7760 -1.3573
 3773WAT      O11720   3.594   4.006   6.212  0.0367 -0.3257  0.0362
 3773WAT     H111721   3.594   3.999   6.308  0.8110  0.7945  0.1394
 3773WAT     H211722   3.684   3.984   6.187  0.7870  2.5401 -0.1142
 3774WAT      O11723   1.451   5.712   1.720 -0.0623 -0.4413 -0.3347
 3774WAT     H111724   1.509   5.786   1.735 -2.9087  1.7864  0.7800
 3774WAT     H211725   1.364   5.744   1.746 -2.0181 -3.1707 -2.7804
 3775WAT      O11726   0.839   3.761   0.470 -0.6884  0.3433  0.7746
 3775WAT     H111727   0.829   3.857   0.471 -0.3067  0.4075  3.2106
 3775WAT     H211728   0.884   3.740   0.552 -1.2683 -1.9859  0.5684
 3776WAT      O11729   7.430   6.276   5.332  0.2534 -0.2630 -0.0726
 3776WAT     H111730   7.396   6.326   5.406 -0.2895  1.3021 -1.3177
 3776WAT     H211731   7.413   6.184   5.355  0.0548  0.1869  1.6942
 3777WAT      O11732   1.249   2.080   4.857  0.6317 -0.1896  0.2939
 3777WAT     H111733   1.273   2.173   4.863  0.0147  0.1128 -1.3415
 3777WAT     H211734   1.183   2.068   4.926  1.0304  0.4822  0.8031
 3778WAT      O11735   7.481   5.821   2.922  0.2282  0.1014 -0.0611
 3778WAT     H111736   7.504   5.912   2.942  0.1499  0.2223 -0.5084
 3778WAT     H211737   7.519   5.770   2.993 -2.1124  0.7298  1.7754
 3779WAT      O11738   1.710   1.062   2.088  0.4702  0.1747  0.1417
 3779WAT     H111739   1.768   1.002   2.040 -0.5230 -1.3637  0.7802
 3779WAT     H211740   1.628   1.059   2.039 -0.3899 -1.0036  1.5500
 3780WAT      O11741   4.611   0.761   3.128  0.5681 -0.4016  0.6709
 3780WAT     H111742   4.659   0.758   3.211  2.1785  1.7316 -0.1021
 3780WAT     H211743   4.525   0.797   3.151  0.2351 -1.7427  1.6676
 3781WAT      O11744   3.668   2.032   4.583 -0.2583  0.4915 -0.0455
 3781WAT     H111745   3.671   2.007   4.675 -1.1596  0.3731 -0.0418
 3781WAT     H211746   3.693   2.125   4.582 -2.1504  1.0445  0.5544
 3782WAT      O11747   3.652   1.952   0.809 -0.2431 -0.2810 -0.5163
 3782WAT     H111748   3.563   1.978   0.783 -0.1340 -0.2358 -0.8472
 3782WAT     H211749   3.675   2.013   0.878 -0.5348 -0.3961 -0.3156
 3783WAT      O11750   2.522   6.235   4.904 -0.1806 -0.1648  0.1939
 3783WAT     H111751   2.526   6.307   4.967  0.9080 -1.2773  1.4398
 3783WAT     H211752   2.540   6.157   4.955 -0.2313 -1.2222 -1.3394
 3784WAT      O11753   5.622   1.253   2.248 -0.0450  0.0239  0.2079
 3784WAT     H111754   5.633   1.158   2.241 -1.1631 -0.1883  0.9611
 3784WAT     H211755   5.587   1.266   2.337  0.1724  1.1454  0.1430
 3785WAT      O11756   5.493   7.142   5.185  0.3698  0.4499  0.6163
 3785WAT     H111757   5.414   7.098   5.215 -0.4839  0.4676 -1.3846
 3785WAT     H211758   5.526   7.189   5.261  0.4295 -2.3191  2.4107
 3786WAT      O11759   6.098   6.601   4.424 -0.1613 -0.3737 -0.5260
 3786WAT     H111760   6.116   6.568   4.512 -0.5105 -1.7107 -0.9389
 3786WAT     H211761   6.006   6.579   4.408 -0.6728  1.5910 -0.4994
 3787WAT      O11762   5.329   1.895   2.881  0.2497 -0.1534 -0.2356
 3787WAT     H111763   5.413   1.878   2.922  0.9313 -0.8084 -1.8310
 3787WAT     H211764   5.264   1.872   2.947  1.2891 -1.6177  0.3019
 3788WAT      O11765   0.189   1.921   4.842 -0.5002  0.1531 -0.4116
 3788WAT     H111766   0.121   1.873   4.795  1.0105 -1.2289 -1.2829
 3788WAT     H211767   0.249   1.951   4.773  0.2292  0.5981  0.3971
 3789WAT      O11768   3.018   5.785   0.628 -0.6945  0.1649  0.2625
 3789WAT     H111769   2.957   5.795   0.555 -2.0808  0.0905  1.3580
 3789WAT     H211770   3.001   5.697   0.662 -0.5179  0.4202  1.0452
 3790WAT      O11771   3.170   3.058   3.581 -0.1460 -0.2340  0.5020
 3790WAT     H111772   3.260   3.091   3.573 -0.1594 -0.4273 -0.6407
 3790WAT     H211773   3.135   3.102   3.657  0.1910  1.5947 -0.3514
 3791WAT      O11774   5.097   1.109   1.338  0.5107 -0.0617 -0.5755
 3791WAT     H111775   5.064   1.025   1.305  0.0164  0.1444 -0.6027
 3791WAT     H211776   5.021   1.153   1.373  1.1849 -0.7429  1.9135
 3792WAT      O11777   6.469   4.612   1.132 -0.2475 -0.0557 -0.3200
 3792WAT     H111778   6.536   4.679   1.120 -1.1812  1.0466  0.4867
 3792WAT     H211779   6.388   4.654   1.104 -0.7195 -1.1590 -0.6615
 3793WAT      O11780   2.395   2.491   0.047  0.7694 -0.4147  0.0929
 3793WAT     H111781   2.419   2.500   0.139 -3.2551 -0.6328  1.3445
 3793WAT     H211782   2.407   2.398   0.028  3.1395 -0.1025 -0.1727
 3794WAT      O11783   7.027   7.105   1.921  0.4005  0.5216  0.3780
 3794WAT     H111784   7.080   7.117   1.843  2.4062 -0.2830  1.5536
 3794WAT     H211785   7.089   7.109   1.994 -1.0053 -1.3434  1.7860
 3795WAT      O11786   2.308   5.573   4.204  0.2248  0.4475  0.0937
 3795WAT     H111787   2.321   5.626   4.125 -0.2602  0.0802 -0.2317
 3795WAT     H211788   2.393   5.577   4.248  1.1750 -1.0244 -1.4769
 3796WAT      O11789   5.078   6.021   5.723  0.0018  0.6310 -0.3556
 3796WAT     H111790   4.990   6.016   5.762  0.5028 -0.4980  0.7108
 3796WAT     H211791   5.134   6.048   5.795  0.7090  0.1536 -0.7203
 3797WAT      O11792   2.378   3.257   5.979  0.1345 -0.4531  0.3245
 3797WAT     H111793   2.298   3.310   5.971 -2.1640 -3.2099  2.7935
 3797WAT     H211794   2.435   3.308   6.036  0.4590  1.7425 -1.7886
 3798WAT      O11795   0.410   6.643   4.781  0.6384 -0.6952  0.0921
 3798WAT     H111796   0.376   6.709   4.842 -2.7445 -1.4491 -0.7299
 3798WAT     H211797   0.416   6.688   4.697 -0.4566 -1.0551 -0.2005
 3799WAT      O11798   0.549   5.963   3.818 -0.6349  0.6329  0.3019
 3799WAT     H111799   0.607   6.039   3.812 -0.7415  0.7495  0.6905
 3799WAT     H211800   0.609   5.888   3.827 -0.5377  0.8336  1.5516
 3800WAT      O11801   4.900   1.738   4.677  0.3839 -0.0366 -0.2573
 3800WAT     H111802   4.977   1.724   4.622  0.1112 -0.2108 -0.5964
 3800WAT     H211803   4.907   1.828   4.707  2.0701 -0.7541  1.8048
 3801WAT      O11804   6.362   6.338   5.594  0.1510 -0.3216  0.0952
 3801WAT     H111805   6.399   6.252   5.617  1.0720 -0.6871 -2.4316
 3801WAT     H211806   6.326   6.371   5.676 -0.2466 -3.1263  1.1601
 3802WAT      O11807   0.108   3.591   4.026  0.4849 -0.1172  0.1136
 3802WAT     H111808   0.014   3.581   4.009  0.8240 -0.9659 -1.4607
 3802WAT     H211809   0.118   3.572   4.119 -0.8087 -0.6864  0.1579
 3803WAT      O11810   0.799   5.487   3.438  0.0339  0.0049  0.4112
 3803WAT     H111811   0.855   5.414   3.461  0.9601  0.4869 -0.2740
 3803WAT     H211812   0.743   5.499   3.515 -0.0189 -1.2899  0.6019
 3804WAT      O11813   6.604   5.310   3.413 -0.3203  0.0322 -0.3150
 3804WAT     H111814   6.619   5.231   3.463  0.2192 -0.1409 -0.7472
 3804WAT     H211815   6.691   5.341   3.388 -0.5835 -1.4931 -3.6270
 3805WAT      O11816   4.158   4.559   5.705 -0.5313  0.2631 -0.0857
 3805WAT     H111817   4.067   4.530   5.706 -0.6199  0.5087 -0.6240
 3805WAT     H211818   4.153   4.654   5.691 -0.2096  0.3750  0.4928
 3806WAT      O11819   5.050   7.009   4.717 -0.2174  0.6687 -0.6100
 3806WAT     H111820   5.014   6.924   4.690 -0.3654  0.7352 -0.6230
 3806WAT     H211821   4.974   7.066   4.725 -0.3451  0.2669  1.4018
 3807WAT      O11822   4.520   3.010   3.305  0.6586 -0.3197  0.8207
 3807WAT     H111823   4.605   3.055   3.307 -0.1212  1.2080  2.0408
 3807WAT     H211824   4.466   3.065   3.247  0.4585 -1.2483  0.1028
 3808WAT      O11825   1.766   1.748   5.819 -0.0456  0.1086 -0.5110
 3808WAT     H111826   1.785   1.774   5.909  0.5480 -0.5193 -0.4437
 3808WAT     H211827   1.673   1.729   5.818 -0.3207  1.3299 -0.3477
 3809WAT      O11828   5.746   3.757   5.320 -0.2784  0.1217  0.8873
 3809WAT     H111829   5.838   3.768   5.343 -0.0321  0.7613 -0.3351
 3809WAT     H211830   5.729   3.824   5.253 -0.4781 -2.5744 -2.0253
 3810WAT      O11831   6.771   3.853   4.450  0.0235  0.0495  0.5745
 3810WAT     H111832   6.769   3.828   4.543  1.4523  0.2051  0.6692
 3810WAT     H211833   6.778   3.769   4.404  3.4649  0.0380  0.8372
 3811WAT      O11834   5.272   2.781   5.323 -1.0069  0.2741  0.2375
 3811WAT     H111835   5.244   2.870   5.301 -0.5133  0.3073 -0.2707
 3811WAT     H211836   5.366   2.788   5.339 -0.7738 -0.3175 -0.7736
 3812WAT      O11837   0.691   7.190   2.350  0.2694  0.0266 -0.0803
 3812WAT     H111838   0.625   7.147   2.404 -0.7339 -0.4449 -1.5991
 3812WAT     H211839   0.742   7.242   2.411 -2.4037  1.5550  1.0287
 3813WAT      O11840   1.363   4.687   2.547 -0.5337 -0.1792 -0.1024
 3813WAT     H111841   1.332   4.776   2.562 -0.9336 -0.4072  0.5031
 3813WAT     H211842   1.374   4.651   2.636 -0.5218 -0.7741 -0.3404
 3814WAT      O11843   1.217   2.216   0.943  0.1994  0.3816  0.0418
 3814WAT     H111844   1.178   2.153   0.882  3.3360 -0.7632 -1.0181
 3814WAT     H211845   1.177   2.197   1.027 -0.2865 -1.8056 -0.6310
 3815WAT      O11846   2.406   2.145   2.112 -0.2273 -0.1325 -0.4711
 3815WAT     H111847   2.501   2.158   2.106 -0.4778  1.7253 -1.2086
 3815WAT     H211848   2.392   2.054   2.088  1.4529 -0.7457  0.7261
 3816WAT      O11849   1.033   5.008   5.918 -0.5874 -0.5655 -0.1287
 3816WAT     H111850   1.065   4.929   5.961  3.2555  1.5242  1.3146
 3816WAT     H211851   0.963   5.039   5.976  0.7539 -0.7440  1.6925
 3817WAT      O11852   2.605   3.951   4.543 -0.3901  0.1587  0.2585
 3817WAT     H111853   2.516   3.919   4.529 -0.8738  0.4104  2.4520
 3817WAT     H211854   2.661   3.877   4.517 -1.4000 -1.4989  2.4787
 3818WAT      O11855   6.303   1.630   1.541 -0.1551  0.1249  0.1195
 3818WAT     H111856   6.373   1.645   1.604  0.4075 -0.2430 -0.3998
 3818WAT     H211857   6.282   1.537   1.550 -0.6642  0.2602  0.3571
 3819WAT      O11858   4.006   0.880   0.721 -0.6538  0.1287 -0.5665
 3819WAT     H111859   4.100   0.874   0.704 -0.6716 -0.0085 -0.6228
 3819WAT     H211860   3.993   0.969   0.754  0.0192 -0.8110  2.6152
 3820WAT      O11861   1.477   7.024   2.063 -0.2915 -0.0335  0.3469
 3820WAT     H111862   1.546   7.061   2.008  0.2340 -1.8756 -0.3097
 3820WAT     H211863   1.423   6.974   2.003 -0.3190 -1.2445  1.3375
 3821WAT      O11864   2.001   0.886   2.424 -0.2637 -0.3685  0.4606
 3821WAT     H111865   2.000   0.823   2.352  0.4827 -0.0524  0.1648
 3821WAT     H211866   1.911   0.886   2.457 -0.5745 -0.6503 -0.3625
 3822WAT      O11867   3.249   6.588   3.088  0.1631 -0.1270 -0.4662
 3822WAT     H111868   3.176   6.649   3.100  0.7618  0.4235  0.5170
 3822WAT     H211869   3.319   6.642   3.053  1.1708  0.1321  1.7653
 3823WAT      O11870   4.583   4.227   1.159  0.0893  0.3433  0.0218
 3823WAT     H111871   4.510   4.240   1.220 -0.2641  1.4955 -0.6168
 3823WAT     H211872   4.576   4.135   1.133 -0.6716  0.2394  0.5450
 3824WAT      O11873   7.333   4.405   5.176  0.6283 -0.4837  0.1397
 3824WAT     H111874   7.331   4.498   5.199 -1.1605 -0.2786 -0.6777
 3824WAT     H211875   7.353   4.361   5.259 -0.7787  0.5141  1.0641
 3825WAT      O11876   5.353   1.096   4.724 -0.0564 -0.7779 -0.3266
 3825WAT     H111877   5.405   1.159   4.774  1.5665 -1.8852 -0.5709
 3825WAT     H211878   5.337   1.025   4.786 -0.9952 -0.6239 -0.3719
 3826WAT      O11879   7.390   6.017   5.444  0.1354  0.7004  0.4039
 3826WAT     H111880   7.408   5.960   5.519 -0.3445  0.0511  0.0345
 3826WAT     H211881   7.369   5.957   5.372 -1.3510  1.3302  0.2601
 3827WAT      O11882   4.371   4.976   6.039 -0.2655 -0.0153 -0.2263
 3827WAT     H111883   4.379   4.943   6.129 -0.6669  1.4332  0.3687
 3827WAT     H211884   4.328   4.905   5.992  0.1474 -0.8921  0.6625
 3828WAT      O11885   1.092   4.533   1.400 -0.1923  0.0998  0.1553
 3828WAT     H111886   1.086   4.463   1.465  0.5394  2.2338  2.6717
 3828WAT     H211887   1.154   4.596   1.438 -1.1122  2.3017 -1.7850
 3829WAT      O11888   0.428   4.535   5.796 -0.2344 -0.0586 -0.6570
 3829WAT     H111889   0.445   4.485   5.876  0.4301 -0.6080 -1.1360
 3829WAT     H211890   0.362   4.599   5.823 -1.6116 -1.5946 -0.1802
 3830WAT      O11891   5.534   5.771   1.276  0.3752  0.2846  0.0879
 3830WAT     H111892   5.480   5.791   1.199  0.2881  1.1502  0.3614
 3830WAT     H211893   5.624   5.778   1.244  0.3752  2.0814  0.3703
 3831WAT      O11894   0.916   5.353   0.427 -0.4644 -0.3168 -0.1585
 3831WAT     H111895   0.986   5.416   0.446 -0.7642  0.3062 -1.0429
 3831WAT     H211896   0.919   5.291   0.500 -0.4089  0.9306  0.9347
 3832WAT      O11897   0.908   6.008   5.449 -0.3350 -0.1569  0.1705
 3832WAT     H111898   0.954   6.065   5.511 -0.4091 -0.5580  0.5956
 3832WAT     H211899   0.825   5.988   5.492  0.6895 -2.6151  1.1578
 3833WAT      O11900   0.629   3.554   3.464  0.2908 -0.0680  0.0216
 3833WAT     H111901   0.593   3.533   3.551  2.9455 -0.7018  1.0518
 3833WAT     H211902   0.699   3.491   3.451  1.4546  1.4589 -1.5785
 3834WAT      O11903   3.054   1.638   1.692 -0.2434  0.0026  0.1907
 3834WAT     H111904   3.049   1.548   1.660  0.5617  0.4436 -1.2982
 3834WAT     H211905   2.973   1.651   1.740 -0.2123 -1.6254  0.7437
 3835WAT      O11906   6.099   5.584   2.731  0.0455 -0.0311  0.1033
 3835WAT     H111907   6.093   5.675   2.702  0.8859  0.0987  0.2888
 3835WAT     H211908   6.193   5.571   2.748 -0.2326 -0.5264  1.3698
 3836WAT      O11909   7.536   2.315   1.742  0.2669 -0.0099 -0.0302
 3836WAT     H111910   7.618   2.281   1.706  1.7602  2.4097  0.8755
 3836WAT     H211911   7.545   2.307   1.836 -0.2077  0.9416  0.1127
 3837WAT      O11912   0.313   1.544   3.269  0.1964 -0.5326 -0.4203
 3837WAT     H111913   0.357   1.581   3.346  0.0866  0.3886 -0.7933
 3837WAT     H211914   0.274   1.462   3.301 -0.3029  0.0982  0.6354
 3838WAT      O11915   0.468   0.059   4.503 -0.3241  0.7411 -0.6198
 3838WAT     H111916   0.394   0.005   4.532  0.3442  0.4669  0.6575
 3838WAT     H211917   0.481   0.035   4.411 -2.8823  2.0302 -1.4170
 3839WAT      O11918   4.117   0.472   1.357  1.1004 -0.1455 -0.0033
 3839WAT     H111919   4.191   0.441   1.410  1.8690  0.0202 -0.9651
 3839WAT     H211920   4.067   0.527   1.418  3.0163  1.6325  0.0822
 3840WAT      O11921   0.036   1.115   1.695 -0.2811 -0.0661 -0.5134
 3840WAT     H111922   0.093   1.107   1.618 -1.2236  2.7358 -1.6667
 3840WAT     H211923   0.096   1.112   1.769  0.9176 -0.8166 -1.4700
 3841WAT      O11924   2.194   3.144   2.048  0.0655  0.5068 -0.3379
 3841WAT     H111925   2.200   3.234   2.016  0.3768  0.7853  0.4846
 3841WAT     H211926   2.101   3.130   2.063 -0.1302  0.2648 -1.6300
 3842WAT      O11927   3.740   0.354   1.903  0.3327 -0.2302  0.1188
 3842WAT     H111928   3.799   0.336   1.977 -0.0945 -0.0023  0.5140
 3842WAT     H211929   3.654   0.363   1.942  0.0750 -0.2709 -0.4300
 3843WAT      O11930   6.981   5.260   3.709  0.4559  0.5497  0.2212
 3843WAT     H111931   6.916   5.200   3.745  1.4025 -0.0031  1.0540
 3843WAT     H211932   7.030   5.291   3.785  0.1675  2.1737 -0.2255
 3844WAT      O11933   0.896   1.111   4.029  0.2657 -0.4461 -0.1866
 3844WAT     H111934   0.949   1.162   3.967 -0.4815 -0.9734 -1.3101
 3844WAT     H211935   0.958   1.081   4.095  0.8344  1.4025  0.1798
 3845WAT      O11936   7.250   1.171   2.251 -0.3306 -0.0898  0.2333
 3845WAT     H111937   7.280   1.128   2.331 -1.0962  0.7913  1.0023
 3845WAT     H211938   7.297   1.254   2.249  0.6217 -0.6160 -0.8987
 3846WAT      O11939   4.802   1.056   2.643 -0.1017  0.1579 -0.5627
 3846WAT     H111940   4.872   1.061   2.709 -1.0808  0.0965  0.5161
 3846WAT     H211941   4.778   0.963   2.640  1.2855 -0.1908 -2.5036
 3847WAT      O11942   2.649   2.293   5.845  0.0758 -0.4662  0.2797
 3847WAT     H111943   2.561   2.256   5.856 -0.2070  0.1735  0.2321
 3847WAT     H211944   2.680   2.257   5.762 -0.3773 -0.2470  0.0073
 3848WAT      O11945   7.604   3.291   1.065 -0.6578  0.4783 -0.6471
 3848WAT     H111946   7.522   3.338   1.081  0.4710  3.5180 -2.9265
 3848WAT     H211947   7.591   3.248   0.981  0.5018  2.2294 -1.7777
 3849WAT      O11948   2.953   5.326   3.375 -0.8260  0.1601  0.5300
 3849WAT     H111949   2.993   5.271   3.442 -1.9009  0.7325  1.6841
 3849WAT     H211950   3.027   5.360   3.325 -0.0621 -1.0662  0.7896
 3850WAT      O11951   5.697   4.532   6.238  0.0120 -0.1879 -0.3520
 3850WAT     H111952   5.641   4.606   6.212  2.3364  2.1035  0.7303
 3850WAT     H211953   5.741   4.506   6.157 -0.6023 -0.2037 -0.6894
 3851WAT      O11954   5.971   0.481   6.059  0.4374  0.2763 -0.2908
 3851WAT     H111955   5.884   0.445   6.079  0.5902  1.0148  2.0317
 3851WAT     H211956   6.029   0.406   6.059  0.2809  0.1246  1.4539
 3852WAT      O11957   5.414   0.708   4.032  0.0266  0.0477 -0.3919
 3852WAT     H111958   5.356   0.753   4.094  1.8402  0.1993  1.2864
 3852WAT     H211959   5.476   0.776   4.005 -0.8058  0.0092 -2.5251
 3853WAT      O11960   4.962   5.164   4.650 -0.4768 -0.5193  0.5846
 3853WAT     H111961   4.905   5.100   4.609 -2.4230 -0.3577  2.7812
 3853WAT     H211962   4.997   5.119   4.728  0.5362  0.1525  0.5411
 3854WAT      O11963   7.396   5.750   3.323 -0.0955  0.3362 -0.0530
 3854WAT     H111964   7.302   5.748   3.308  0.1217 -0.0111 -1.5963
 3854WAT     H211965   7.408   5.807   3.399 -1.4428  1.4362 -0.6306
 3855WAT      O11966   2.250   3.944   4.823 -0.3766 -0.0401  0.4417
 3855WAT     H111967   2.304   3.879   4.868  0.6745  0.4285 -0.0904
 3855WAT     H211968   2.288   3.949   4.735 -0.5502  1.1598  0.4220
 3856WAT      O11969   4.588   6.544   0.792  0.2646  0.2168  0.5327
 3856WAT     H111970   4.581   6.585   0.706 -0.9016 -0.4870  0.2820
 3856WAT     H211971   4.498   6.523   0.817  0.6571 -0.2847  1.5870
 3857WAT      O11972   5.862   1.316   6.020 -0.1963  0.2908 -0.3992
 3857WAT     H111973   5.784   1.371   6.024 -1.0093 -0.8461 -0.0324
 3857WAT     H211974   5.841   1.240   6.074  0.8479 -0.4361 -0.9679
 3858WAT      O11975   3.130   6.389   2.955 -0.0312  0.3635  0.4826
 3858WAT     H111976   3.157   6.299   2.971 -1.9236 -0.3374  0.0077
 3858WAT     H211977   3.191   6.442   3.006  0.8774 -1.1941  1.0771
 3859WAT      O11978   1.935   6.132   6.089 -0.3460  0.5043  0.3850
 3859WAT     H111979   1.873   6.112   6.160 -1.7260 -1.1778 -1.1891
 3859WAT     H211980   1.882   6.176   6.023  0.3219 -0.1661 -0.6238
 3860WAT      O11981   1.323   0.873   2.025 -0.2732  0.3222  0.0269
 3860WAT     H111982   1.230   0.893   2.015 -0.6940 -0.9263  1.1701
 3860WAT     H211983   1.355   0.937   2.090 -0.4484  0.4430 -0.0068
 3861WAT      O11984   7.320   5.095   2.076  0.5060 -0.0350  0.3965
 3861WAT     H111985   7.287   5.164   2.133 -0.1121 -0.2366  0.2926
 3861WAT     H211986   7.408   5.076   2.109  0.8335  1.0563  0.1925
 3862WAT      O11987   1.097   3.040   3.748  0.5017  0.1802 -0.6440
 3862WAT     H111988   1.139   3.087   3.819 -0.7192 -0.1188  0.3071
 3862WAT     H211989   1.127   2.950   3.757  0.6916  0.2284 -0.7853
 3863WAT      O11990   6.977   2.194   5.209  0.1624 -0.4417 -0.3758
 3863WAT     H111991   6.902   2.253   5.197  0.2275 -0.3581 -0.3749
 3863WAT     H211992   6.948   2.130   5.273  0.7024  0.6481  1.0097
 3864WAT      O11993   3.931   0.064   3.894  0.0835  0.1359  0.6938
 3864WAT     H111994   3.844   0.092   3.922 -0.4907  1.9679 -2.4149
 3864WAT     H211995   3.923  -0.031   3.883 -0.2073 -0.3647  4.2951
 3865WAT      O11996   1.933   1.178   3.968 -0.0773  0.4842 -0.1259
 3865WAT     H111997   1.987   1.231   4.027  0.2448 -0.0681  0.0846
 3865WAT     H211998   1.852   1.228   3.958  0.0729  0.8337  0.3644
 3866WAT      O11999   6.211   5.496   2.278  0.6411 -0.1985 -0.1430
 3866WAT     H112000   6.158   5.533   2.348 -0.3762 -1.0435 -0.4392
 3866WAT     H212001   6.302   5.514   2.305  0.3060 -0.9634  1.6637
 3867WAT      O12002   7.593   6.481   2.671  0.0385 -0.6080 -0.0014
 3867WAT     H112003   7.660   6.479   2.739  0.5623 -0.6387 -0.5178
 3867WAT     H212004   7.527   6.418   2.702  0.1477 -0.4373  0.6011
 3868WAT      O12005   5.936   2.615   1.222  0.5318 -0.3725 -0.6060
 3868WAT     H112006   5.963   2.542   1.279 -1.8840 -0.6162  0.3493
 3868WAT     H212007   5.898   2.572   1.145  0.6882 -0.0941 -0.8393
 3869WAT      O12008   2.792   4.816   0.289 -0.1694 -0.0572  0.2739
 3869WAT     H112009   2.846   4.737   0.286  0.0676  0.1301 -0.9870
 3869WAT     H212010   2.745   4.816   0.206  0.7984  1.7710 -0.3480
 3870WAT      O12011   2.298   5.420   0.338  0.8150 -0.1354 -0.7731
 3870WAT     H112012   2.204   5.421   0.353  0.3448  0.9878 -3.3335
 3870WAT     H212013   2.329   5.343   0.386 -0.9465  0.8127  2.1843
 3871WAT      O12014   4.949   2.464   2.504 -0.2726  0.3213 -0.4189
 3871WAT     H112015   4.965   2.423   2.590  0.2873 -2.2437 -1.6527
 3871WAT     H212016   4.854   2.460   2.493 -0.2774 -0.1091 -0.2585
 3872WAT      O12017   1.064   2.931   4.601 -0.6671  0.1273  0.5222
 3872WAT     H112018   1.034   2.841   4.609  1.0329 -0.4110  1.5076
 3872WAT     H212019   1.031   2.975   4.680  1.2238 -0.5382  1.7559
 3873WAT      O12020   0.526   0.213   2.887  0.0020 -0.0363  0.2932
 3873WAT     H112021   0.494   0.271   2.817  0.5740  0.3054  0.3016
 3873WAT     H212022   0.572   0.143   2.841  0.7382  0.4114  0.3306
 3874WAT      O12023   0.035   2.824   2.279  0.0880  0.3916  0.2259
 3874WAT     H112024   0.011   2.732   2.282  0.6845  0.2347  0.3900
 3874WAT     H212025   0.131   2.824   2.289  0.2438  0.9498 -1.0885
 3875WAT      O12026   6.670   6.686   1.531 -0.0647  0.2676  0.4061
 3875WAT     H112027   6.763   6.669   1.546  0.3698  0.9431 -1.2267
 3875WAT     H212028   6.640   6.728   1.611  1.3068  0.9883  0.5772
 3876WAT      O12029   5.783   4.233   5.599  0.8148 -0.2048  0.3498
 3876WAT     H112030   5.870   4.259   5.628  0.3518  1.5956  0.2644
 3876WAT     H212031   5.758   4.301   5.536 -0.4523 -0.9576  0.0040
 3877WAT      O12032   3.927   6.980   4.469 -0.1164 -0.1327 -0.2900
 3877WAT     H112033   3.850   7.016   4.425  0.2435  1.7967  0.5538
 3877WAT     H212034   3.892   6.925   4.538 -0.8193  1.6446  0.8330
 3878WAT      O12035   1.289   1.935   0.071 -0.5630 -0.0964 -0.9348
 3878WAT     H112036   1.284   1.963   0.162 -0.3584 -0.6906 -0.7338
 3878WAT     H212037   1.198   1.917   0.047 -0.4867 -1.3108 -0.3929
 3879WAT      O12038   6.882   4.473   1.869 -0.0830  0.0624 -0.4712
 3879WAT     H112039   6.878   4.557   1.914  0.9259 -0.5981  0.9248
 3879WAT     H212040   6.960   4.480   1.814  1.5483 -0.8007  1.5808
 3880WAT      O12041   3.670   6.824   1.892 -0.3394  0.3201 -0.3968
 3880WAT     H112042   3.613   6.850   1.964 -0.9480  1.3751 -1.2268
 3880WAT     H212043   3.698   6.735   1.914  1.1187  1.2807  2.1266
 3881WAT      O12044   3.623   4.979   0.957 -0.3044  0.6147  0.1406
 3881WAT     H112045   3.679   4.932   0.895 -1.4991  0.0491 -0.5560
 3881WAT     H212046   3.534   4.953   0.932 -0.9472  2.4588  0.3950
 3882WAT      O12047   0.115   5.189   0.821 -0.0951  0.0420  0.2072
 3882WAT     H112048   0.054   5.154   0.756 -0.5571  0.1839  0.5550
 3882WAT     H212049   0.076   5.273   0.846 -0.1804 -0.2386  1.0243
 3883WAT      O12050   1.437   1.975   3.603  0.7629 -0.0520 -0.1368
 3883WAT     H112051   1.401   2.052   3.647  0.9540  0.0821 -0.2159
 3883WAT     H212052   1.519   1.957   3.648  0.7147 -0.2149 -0.1131
 3884WAT      O12053   2.525   4.422   5.835  0.1639  0.0618  0.4035
 3884WAT     H112054   2.568   4.505   5.856 -0.0167 -0.0168  1.1124
 3884WAT     H212055   2.466   4.407   5.909 -0.6466 -0.1260 -0.2642
 3885WAT      O12056   4.475   6.807   3.033 -0.4010  0.2744 -0.1598
 3885WAT     H112057   4.398   6.780   3.084 -1.2898  0.4809 -1.3414
 3885WAT     H212058   4.514   6.877   3.085 -0.9728  0.1193  0.5006
 3886WAT      O12059   5.357   6.817   1.063  0.2856 -0.9379  0.3214
 3886WAT     H112060   5.282   6.766   1.093  0.6766 -1.4889  0.3731
 3886WAT     H212061   5.422   6.809   1.134 -0.0807  0.5902  0.8536
 3887WAT      O12062   4.172   0.810   2.007  0.0870 -0.3561  0.1379
 3887WAT     H112063   4.097   0.758   2.037 -0.4089  0.7937  0.9335
 3887WAT     H212064   4.203   0.855   2.085  0.4008  0.6863 -0.5665
 3888WAT      O12065   7.646   4.419   6.237 -0.2696  0.4571  0.2639
 3888WAT     H112066   7.593   4.407   6.316 -0.8981  1.3632 -0.0058
 3888WAT     H212067   7.686   4.505   6.247  0.6973  0.0321  0.1864
 3889WAT      O12068   5.181   2.932   5.738  0.0153  0.3407 -0.0430
 3889WAT     H112069   5.213   3.015   5.774  0.3886  0.2207 -0.0943
 3889WAT     H212070   5.124   2.897   5.807 -0.7631  1.0108 -0.3395
 3890WAT      O12071   5.148   5.108   2.461  0.3187  0.0994 -0.3366
 3890WAT     H112072   5.184   5.084   2.375 -0.6947 -0.0595 -0.7333
 3890WAT     H212073   5.193   5.189   2.484  0.4681  0.2458 -1.1186
 3891WAT      O12074   0.013   5.579   0.032 -0.0890 -0.4312 -0.2175
 3891WAT     H112075   0.018   5.485   0.012 -1.4811 -0.4047 -0.8525
 3891WAT     H212076  -0.074   5.605   0.001  0.1683  1.0181  0.2009
 3892WAT      O12077   4.617   0.280   1.333  0.5010 -0.2987  0.1804
 3892WAT     H112078   4.576   0.194   1.349 -2.2442  0.7082 -0.8766
 3892WAT     H212079   4.617   0.289   1.238 -0.1230  1.2570  0.3099
 3893WAT      O12080   6.762   5.573   0.331  0.1269 -0.1046  0.2313
 3893WAT     H112081   6.732   5.604   0.416  0.5220 -1.3210  0.8445
 3893WAT     H212082   6.749   5.478   0.335 -0.9727 -0.0774 -1.5189
 3894WAT      O12083   2.794   6.239   5.782 -0.2296  0.2458 -0.4655
 3894WAT     H112084   2.701   6.246   5.806  0.2981 -0.1699  1.9651
 3894WAT     H212085   2.803   6.153   5.743 -1.1438  0.9430 -2.3192
 3895WAT      O12086   2.335   1.345   4.485 -0.4333  0.1618 -0.3052
 3895WAT     H112087   2.407   1.285   4.466 -1.1225 -0.5805 -0.6574
 3895WAT     H212088   2.333   1.350   4.581  0.6880  0.9629 -0.3078
 3896WAT      O12089   3.409   7.157   3.666  0.2636  0.0997  0.3602
 3896WAT     H112090   3.345   7.130   3.732  0.3986 -0.8337  0.1227
 3896WAT     H212091   3.398   7.094   3.595 -1.3013  2.2501 -1.4637
 3897WAT      O12092   5.220   4.755   3.170  0.9568  0.1008  0.1354
 3897WAT     H112093   5.162   4.811   3.119 -0.2062 -2.0123 -0.9679
 3897WAT     H212094   5.209   4.668   3.133  1.4012 -1.2198  2.8780
 3898WAT      O12095   2.730   3.471   5.059  0.0331  0.1507 -0.3007
 3898WAT     H112096   2.817   3.439   5.035 -0.0038  0.5359 -0.9843
 3898WAT     H212097   2.744   3.520   5.140  0.4220  0.0670 -0.3125
 3899WAT      O12098   1.900   4.305   3.421  0.2109 -0.0898 -0.4909
 3899WAT     H112099   1.916   4.378   3.482  1.5545  0.3916 -1.3532
 3899WAT     H212100   1.880   4.231   3.477 -1.2402  0.9363  0.4220
 3900WAT      O12101   4.641   5.591   3.723  0.3642 -0.2956 -0.4361
 3900WAT     H112102   4.597   5.515   3.684 -1.5566  0.6068 -0.1367
 3900WAT     H212103   4.660   5.563   3.813  0.0097 -0.5545 -0.4381
 3901WAT      O12104   6.064   6.010   3.459 -0.1108  0.5911 -0.0467
 3901WAT     H112105   6.093   6.022   3.550 -0.2649  1.2285 -0.0839
 3901WAT     H212106   5.973   6.038   3.459  0.6533  3.3058 -0.9901
 3902WAT      O12107   4.854   4.983   3.687 -0.4747  0.0630  0.2826
 3902WAT     H112108   4.852   4.999   3.781 -0.6074  0.1074  0.2737
 3902WAT     H212109   4.856   4.888   3.679  0.5315  0.0730  0.3380
 3903WAT      O12110   1.194   5.739   3.413 -0.3761  0.2665 -0.1823
 3903WAT     H112111   1.237   5.728   3.498 -0.4491 -1.6352 -0.3510
 3903WAT     H212112   1.104   5.764   3.434 -0.4756 -0.4953  0.3023
 3904WAT      O12113   6.029   3.848   6.237 -0.1251 -0.6917 -0.0190
 3904WAT     H112114   6.056   3.858   6.329  0.5555  0.2123 -0.3056
 3904WAT     H212115   5.938   3.819   6.242 -1.0211  1.9816  0.9559
 3905WAT      O12116   3.900   2.076   3.282 -0.1232  0.0990  0.4490
 3905WAT     H112117   3.949   2.149   3.244  0.9132 -1.5289 -1.5341
 3905WAT     H212118   3.965   2.024   3.328 -0.6616 -0.1451  0.9472
 3906WAT      O12119   3.466   0.569   2.366  0.3749  0.0389 -0.8733
 3906WAT     H112120   3.407   0.499   2.395  0.7888  0.0876  0.1367
 3906WAT     H212121   3.524   0.527   2.303  1.3571 -0.8277  0.5786
 3907WAT      O12122   4.012   1.123   0.802 -0.2515  0.1797  0.2434
 3907WAT     H112123   3.996   1.196   0.743 -1.1280  0.2337  0.5248
 3907WAT     H212124   4.061   1.161   0.875  0.6649  0.1517 -0.3489
 3908WAT      O12125   7.173   6.760   5.899 -0.6385  0.2103  0.1298
 3908WAT     H112126   7.209   6.848   5.902  1.7203 -0.7078  0.3665
 3908WAT     H212127   7.215   6.713   5.971 -0.4995 -1.5687 -1.0238
 3909WAT      O12128   7.547   0.336   1.730  0.2284  0.1027 -0.0898
 3909WAT     H112129   7.627   0.345   1.781  0.7512 -1.1985 -0.6188
 3909WAT     H212130   7.532   0.422   1.692  0.9465  0.5585  0.6387
 3910WAT      O12131   1.250   6.364   5.445  0.3934 -0.1796  0.1036
 3910WAT     H112132   1.262   6.305   5.519  0.7932 -0.7544 -0.4038
 3910WAT     H212133   1.335   6.407   5.434  0.7448 -1.0655 -0.8198
 3911WAT      O12134   0.993   3.018   5.727 -0.8236 -0.3093  0.0762
 3911WAT     H112135   0.932   3.092   5.722 -1.1660 -0.6602 -3.2631
 3911WAT     H212136   0.937   2.941   5.730 -0.4828 -0.5214  1.2133
 3912WAT      O12137   2.587   5.548   2.756 -0.0737  0.0666  0.0889
 3912WAT     H112138   2.554   5.607   2.824 -1.9723 -0.0088 -0.7329
 3912WAT     H212139   2.579   5.598   2.675 -0.0645 -0.7108 -0.3947
 3913WAT      O12140   4.758   5.364   2.004 -0.3126  0.0998 -0.0025
 3913WAT     H112141   4.853   5.351   2.001 -0.1769  0.1504  2.2694
 3913WAT     H212142   4.722   5.293   1.951  0.8855 -2.4306  2.3298
 3914WAT      O12143   7.137   5.738   3.287 -0.1958 -0.2136 -0.4121
 3914WAT     H112144   7.050   5.780   3.289 -0.7596 -1.3484  1.2883
 3914WAT     H212145   7.133   5.672   3.356  0.9385 -2.5106 -2.3978
 3915WAT      O12146   1.251   2.814   3.679 -0.1394 -0.3265  0.1108
 3915WAT     H112147   1.202   2.768   3.748  0.6190 -0.9433  0.2441
 3915WAT     H212148   1.340   2.781   3.686 -0.1781 -0.9005 -1.6114
 3916WAT      O12149   2.838   1.981   4.852 -0.5257 -0.3046  0.0040
 3916WAT     H112150   2.899   2.000   4.780  0.4964 -1.0746  0.6281
 3916WAT     H212151   2.755   1.961   4.809 -0.1859  0.1845 -0.9073
 3917WAT      O12152   5.552   0.549   2.344  0.6404 -0.0970  0.5993
 3917WAT     H112153   5.588   0.484   2.404  0.9089  0.5914  1.2039
 3917WAT     H212154   5.533   0.500   2.264 -0.4392 -1.1972  1.4950
 3918WAT      O12155   6.256   1.319   1.355 -0.3611 -0.0111  0.1961
 3918WAT     H112156   6.168   1.334   1.390 -0.1838  0.5000  0.4325
 3918WAT     H212157   6.300   1.267   1.422 -0.3023  0.2180  0.3352
 3919WAT      O12158   1.335   1.467   3.726  0.8881  0.1794  0.1660
 3919WAT     H112159   1.241   1.484   3.727  0.9975  1.4058 -2.5325
 3919WAT     H212160   1.374   1.548   3.692  2.8272 -0.6867  0.1793
 3920WAT      O12161   3.211   1.436   3.476  0.4103  0.0988 -0.4536
 3920WAT     H112162   3.294   1.425   3.429  0.1475  1.4867 -1.3059
 3920WAT     H212163   3.219   1.521   3.518  0.1948 -0.6485  1.1524
 3921WAT      O12164   2.109   1.542   3.806 -0.1093  0.2314  0.0447
 3921WAT     H112165   2.019   1.515   3.786 -0.6248 -0.2782  2.6130
 3921WAT     H212166   2.115   1.631   3.772 -0.4891 -0.8024 -2.9664
 3922WAT      O12167   1.077   5.437   1.652 -0.0440 -0.2963 -0.9608
 3922WAT     H112168   0.991   5.428   1.694 -0.1119  0.3129 -0.9545
 3922WAT     H212169   1.069   5.391   1.569 -0.2838 -0.4981 -0.8258
 3923WAT      O12170   3.680   3.293   5.120 -0.1670 -0.1758 -0.4167
 3923WAT     H112171   3.722   3.281   5.205  1.6321  1.1921 -1.0223
 3923WAT     H212172   3.587   3.300   5.139 -0.2982 -3.7352  0.9807
 3924WAT      O12173   2.253   0.820   1.148  0.0217 -0.1752  0.0858
 3924WAT     H112174   2.224   0.889   1.089 -0.4470 -0.8805 -0.5445
 3924WAT     H212175   2.202   0.743   1.120  0.4284 -0.7311  0.8509
 3925WAT      O12176   4.425   3.873   4.496  0.6127  0.2555 -0.4041
 3925WAT     H112177   4.475   3.881   4.577 -0.5686 -0.5323  0.4313
 3925WAT     H212178   4.343   3.832   4.522  0.5970 -0.9346 -2.1576
 3926WAT      O12179   1.038   1.471   0.474 -0.0921 -0.0043 -0.3400
 3926WAT     H112180   1.114   1.428   0.514 -0.2343  0.6553  0.6791
 3926WAT     H212181   0.967   1.456   0.537  0.1361  2.7222  0.6723
 3927WAT      O12182   1.761   0.180   2.244  0.3646  0.3580 -0.4743
 3927WAT     H112183   1.674   0.159   2.278  0.9063 -1.3237 -0.0400
 3927WAT     H212184   1.754   0.271   2.215 -1.0794  0.7582  0.9874
 3928WAT      O12185   4.445   2.998   3.605 -0.0535 -0.4967  0.1531
 3928WAT     H112186   4.524   2.960   3.564  0.8591  0.8423  0.6069
 3928WAT     H212187   4.468   3.089   3.621 -2.7010  0.7615 -2.3241
 3929WAT      O12188   2.989   0.459   5.729 -0.7166  0.8520 -0.3170
 3929WAT     H112189   3.085   0.456   5.727 -0.6885  1.3428  0.0035
 3929WAT     H212190   2.961   0.373   5.697 -0.1663  0.3951  0.4139
 3930WAT      O12191   5.305   4.437   3.788 -0.2608  0.5064 -0.4545
 3930WAT     H112192   5.369   4.496   3.829  1.6765 -1.2458 -0.8165
 3930WAT     H212193   5.237   4.426   3.855  0.2948  1.6473  0.3337
 3931WAT      O12194   5.519   2.177   4.677  0.2299 -0.7391 -0.0807
 3931WAT     H112195   5.493   2.263   4.710  0.1237 -1.6220  2.3367
 3931WAT     H212196   5.550   2.130   4.754  0.8280 -2.6864 -1.4322
 3932WAT      O12197   4.214   3.893   1.446 -0.3150  0.3561 -0.4006
 3932WAT     H112198   4.200   3.799   1.438  0.7987  0.2447 -1.3807
 3932WAT     H212199   4.149   3.932   1.389  0.3854  0.0782 -1.4081
 3933WAT      O12200   5.871   1.879   4.967 -0.4659  0.2881 -0.4208
 3933WAT     H112201   5.820   1.800   4.988 -0.4960  0.3671 -0.1955
 3933WAT     H212202   5.962   1.849   4.965 -0.5998 -0.1038 -1.9776
 3934WAT      O12203   2.326   5.783   2.073 -0.4677  0.2686 -0.3405
 3934WAT     H112204   2.257   5.810   2.013 -1.5597 -1.6083 -0.0239
 3934WAT     H212205   2.407   5.789   2.021 -1.4371 -1.8512 -2.2817
 3935WAT      O12206   6.107   1.810   2.940  0.0942  0.0553 -0.0458
 3935WAT     H112207   6.201   1.822   2.957  0.1277 -0.8517  0.4239
 3935WAT     H212208   6.089   1.720   2.964 -1.2314  0.6539  1.3514
 3936WAT      O12209   0.267   1.130   3.167  0.3916 -0.2446 -0.0325
 3936WAT     H112210   0.264   1.187   3.244 -0.5212 -0.7012  0.2843
 3936WAT     H212211   0.270   1.041   3.203 -1.4232 -0.5243 -0.4941
 3937WAT      O12212   4.237   2.955   3.009  0.1058  0.0825 -0.2639
 3937WAT     H112213   4.232   2.871   3.054 -0.5583  0.0863 -0.3240
 3937WAT     H212214   4.251   3.020   3.079 -1.3028  0.1333 -0.0099
 3938WAT      O12215   3.601   1.544   2.210  0.0873 -0.1474 -0.4018
 3938WAT     H112216   3.571   1.609   2.146  0.5120  1.1223  0.6270
 3938WAT     H212217   3.535   1.546   2.279 -0.2403 -1.3221 -0.6702
 3939WAT      O12218   3.366   3.268   4.223  0.2429 -0.1093  0.2995
 3939WAT     H112219   3.378   3.270   4.318 -0.1122  3.0222  0.3991
 3939WAT     H212220   3.455   3.278   4.188  0.4256 -1.7173  0.2461
 3940WAT      O12221   4.613   5.034   5.900 -0.1679 -0.4021 -0.8538
 3940WAT     H112222   4.674   4.976   5.947 -0.9576  0.2432  1.0634
 3940WAT     H212223   4.532   5.030   5.951 -0.7363  1.2044 -1.5598
 3941WAT      O12224   4.945   5.681   0.572 -0.5473  0.3268 -0.4707
 3941WAT     H112225   4.893   5.608   0.607 -1.5607  1.7014  1.0934
 3941WAT     H212226   4.889   5.720   0.504 -0.4254  0.2187 -0.6326
 3942WAT      O12227   1.356   2.129   5.369  0.2510  0.5885  0.2550
 3942WAT     H112228   1.310   2.200   5.414  0.5528  1.5259 -0.8431
 3942WAT     H212229   1.378   2.166   5.283  1.7664 -0.3345  0.2178
 3943WAT      O12230   3.382   1.858   6.093  0.2437  0.3511 -0.4389
 3943WAT     H112231   3.329   1.858   6.013 -0.0315 -2.0635 -0.3488
 3943WAT     H212232   3.320   1.875   6.163 -0.1094 -0.6452 -0.4953
 3944WAT      O12233   4.587   4.322   5.855 -0.1924 -0.3491  0.2862
 3944WAT     H112234   4.645   4.252   5.826  0.3537 -0.1033  0.7547
 3944WAT     H212235   4.631   4.359   5.932 -1.0281 -0.2341  0.7195
 3945WAT      O12236   0.071   2.098   3.076 -0.1634 -0.1588 -0.5915
 3945WAT     H112237   0.133   2.067   3.142 -0.5730  0.1658 -0.0519
 3945WAT     H212238   0.079   2.194   3.078 -0.3656 -0.1352 -0.8264
 3946WAT      O12239   3.361   2.829   3.172 -0.2964 -0.2744  0.6289
 3946WAT     H112240   3.274   2.811   3.207 -0.0492  0.0783  1.4341
 3946WAT     H212241   3.417   2.840   3.249  0.1390  1.1241  0.1369
 3947WAT      O12242   3.986   0.210   2.702  0.0906  0.7766  0.5634
 3947WAT     H112243   4.032   0.222   2.786 -0.4494 -0.2613  1.0262
 3947WAT     H212244   3.988   0.116   2.687 -2.6606  0.5616  1.0572
 3948WAT      O12245   2.138   0.834   4.906  0.7814 -0.1120  0.5183
 3948WAT     H112246   2.153   0.894   4.833 -0.2714 -1.1921 -0.6279
 3948WAT     H212247   2.191   0.870   4.978  0.4515  1.9710 -0.2244
 3949WAT      O12248   4.786   5.065   2.236 -0.1489 -0.1181  0.0921
 3949WAT     H112249   4.809   5.024   2.319  0.4227 -1.8473 -0.8909
 3949WAT     H212250   4.709   5.017   2.205  0.6916 -0.6658 -1.2118
 3950WAT      O12251   5.992   5.264   0.440 -0.4954 -0.1036  0.2949
 3950WAT     H112252   6.007   5.171   0.457 -1.0614 -0.3978 -0.7266
 3950WAT     H212253   5.904   5.280   0.472 -0.5200  0.0025  0.1728
 3951WAT      O12254   1.920   3.005   3.205 -0.5322  0.2479  0.3370
 3951WAT     H112255   1.974   3.081   3.223 -0.5384  0.5116 -0.7319
 3951WAT     H212256   1.974   2.930   3.231  0.5859  0.4733 -1.1999
 3952WAT      O12257   3.756   0.671   3.751 -0.0275  0.4439 -0.4386
 3952WAT     H112258   3.722   0.589   3.788  0.1085  0.4698 -0.2496
 3952WAT     H212259   3.835   0.689   3.802  0.1195  0.5250 -0.6929
 3953WAT      O12260   0.416   0.630   2.616 -0.2797 -0.1139  0.0046
 3953WAT     H112261   0.432   0.672   2.700 -2.2717  0.1042  0.3225
 3953WAT     H212262   0.358   0.689   2.570 -1.7833 -1.6622 -0.2119
 3954WAT      O12263   4.952   6.255   2.601  0.0737  0.5255  0.3201
 3954WAT     H112264   4.920   6.170   2.631 -0.5916  0.8892  0.6683
 3954WAT     H212265   5.016   6.281   2.668  0.8883 -0.0634 -0.2161
 3955WAT      O12266   0.004   1.741   1.378  0.1962 -0.2537 -0.3877
 3955WAT     H112267  -0.001   1.724   1.284 -0.3416  2.7622 -1.0106
 3955WAT     H212268   0.089   1.785   1.390  0.7956 -1.6486  0.7808
 3956WAT      O12269   2.321   4.418   6.044  0.3984  0.2328  0.4019
 3956WAT     H112270   2.324   4.384   6.134  1.5209  1.8261  1.0067
 3956WAT     H212271   2.282   4.347   5.994 -1.4032 -0.2595  2.3305
 3957WAT      O12272   3.008   2.099   3.256  0.5050 -0.5193 -0.0977
 3957WAT     H112273   3.059   2.031   3.300  1.3420  0.3282  0.2703
 3957WAT     H212274   3.044   2.182   3.288 -1.9041  0.1514  1.1350
 3958WAT      O12275   7.118   7.161   3.725  0.0948 -0.5961  0.3637
 3958WAT     H112276   7.081   7.122   3.805 -0.1634  0.1464  0.6136
 3958WAT     H212277   7.046   7.211   3.687 -0.6441 -3.1389 -1.8545
 3959WAT      O12278   0.649   0.288   0.321 -0.6123  0.2045  0.1077
 3959WAT     H112279   0.704   0.298   0.398 -0.4399 -2.7828  0.5124
 3959WAT     H212280   0.704   0.240   0.258 -1.5680  0.3475 -0.8821
 3960WAT      O12281   0.664   3.198   3.222 -0.5294  0.2758  0.1577
 3960WAT     H112282   0.746   3.215   3.270  0.0554 -0.8497 -0.3998
 3960WAT     H212283   0.621   3.129   3.273  0.1112 -0.9502 -0.9249
 3961WAT      O12284   7.494   3.032   2.493 -0.5417  0.5178 -0.0107
 3961WAT     H112285   7.466   2.952   2.538 -1.0093  0.2668 -0.7253
 3961WAT     H212286   7.458   3.103   2.546 -0.8754  0.2342  0.1506
 3962WAT      O12287   3.727   3.749   5.744  0.3606 -0.0711  0.4521
 3962WAT     H112288   3.743   3.807   5.819 -0.8875 -2.1115  2.4367
 3962WAT     H212289   3.787   3.676   5.758  0.2921 -0.3681 -0.7229
 3963WAT      O12290   6.111   6.007   3.714 -0.1921 -0.2593 -0.3821
 3963WAT     H112291   6.126   6.082   3.772 -0.5479 -0.8576  0.4918
 3963WAT     H212292   6.175   5.942   3.742 -0.7414 -0.7605 -0.2809
 3964WAT      O12293   2.448   3.860   3.698  0.8702  0.2702  0.1335
 3964WAT     H112294   2.496   3.848   3.780 -0.8423  2.1428  1.4967
 3964WAT     H212295   2.506   3.911   3.643  1.8657 -0.6402  0.3019
 3965WAT      O12296   7.636   6.678   5.257  0.5892 -0.1084  0.2407
 3965WAT     H112297   7.548   6.712   5.267  0.7232 -0.0493  1.3482
 3965WAT     H212298   7.693   6.751   5.279  0.9203 -0.2044 -0.2700
 3966WAT      O12299   6.069   0.506   5.752 -0.1779  0.3481 -0.0542
 3966WAT     H112300   6.065   0.462   5.837 -0.5530 -0.4698 -0.4840
 3966WAT     H212301   5.986   0.552   5.745 -0.0890  0.5299  0.0829
 3967WAT      O12302   3.028   5.342   5.617  0.3984 -0.2065  0.5115
 3967WAT     H112303   3.027   5.263   5.672 -2.1475 -0.2416  0.5186
 3967WAT     H212304   3.078   5.406   5.668  1.9798 -1.5830  0.7773
 3968WAT      O12305   6.345   1.852   2.097  0.3057 -0.2021 -0.1228
 3968WAT     H112306   6.399   1.876   2.172  2.6491 -1.0744 -1.4130
 3968WAT     H212307   6.331   1.934   2.050  1.1045 -0.0557 -0.1136
 3969WAT      O12308   1.712   6.492   1.666 -0.5085  0.0768 -0.0511
 3969WAT     H112309   1.755   6.433   1.727  0.8039  0.2346 -0.7725
 3969WAT     H212310   1.641   6.441   1.627 -2.5720  0.5130  2.8544
 3970WAT      O12311   0.954   5.561   2.107 -0.0230  0.0648  0.3969
 3970WAT     H112312   1.027   5.568   2.168  1.5205 -0.1343 -1.3320
 3970WAT     H212313   0.931   5.652   2.086  0.4147  0.1327  0.1989
 3971WAT      O12314   5.189   2.101   4.230 -0.2966  0.1347 -0.2479
 3971WAT     H112315   5.142   2.133   4.307 -0.0102 -0.3612  0.1361
 3971WAT     H212316   5.281   2.100   4.256 -0.2967 -0.9733 -0.2545
 3972WAT      O12317   6.984   0.096   3.272 -0.1455 -0.0922 -0.6921
 3972WAT     H112318   7.017   0.087   3.361  1.1789  0.0662 -1.1579
 3972WAT     H212319   6.898   0.054   3.275 -0.5249  0.6966  0.8780
 3973WAT      O12320   4.321   0.060   4.195 -0.2607 -0.3716 -0.3713
 3973WAT     H112321   4.315   0.039   4.288  0.2040  3.5063  0.6978
 3973WAT     H212322   4.230   0.068   4.166 -0.4897  1.9370  0.7861
 3974WAT      O12323   2.462   4.303   4.607 -0.6488 -0.1288 -0.5955
 3974WAT     H112324   2.519   4.255   4.666 -0.5159  0.7056 -0.0270
 3974WAT     H212325   2.377   4.259   4.615 -0.9021  0.5887  1.0213
 3975WAT      O12326   1.396   2.015   3.335  0.2666 -0.1022  0.5840
 3975WAT     H112327   1.352   2.100   3.324  1.2071  0.5255  1.4171
 3975WAT     H212328   1.397   2.002   3.430  1.2018 -0.4565  0.5261
 3976WAT      O12329   1.771   4.104   2.364 -0.7636 -0.1481  0.3623
 3976WAT     H112330   1.833   4.177   2.372  1.2859 -1.6331 -0.9641
 3976WAT     H212331   1.817   4.029   2.402 -1.8481 -1.2721 -0.4563
 3977WAT      O12332   1.038   2.134   2.199  0.2676  0.6836  0.0222
 3977WAT     H112333   0.998   2.221   2.200 -1.0639  0.1800  3.3062
 3977WAT     H212334   1.105   2.137   2.268  0.4281 -0.7865 -0.0239
 3978WAT      O12335   2.777   1.737   3.850  0.3043  0.2438  0.0138
 3978WAT     H112336   2.863   1.764   3.818  1.4301 -1.5711  1.3750
 3978WAT     H212337   2.785   1.644   3.867 -2.0710 -0.0689 -0.1578
 3979WAT      O12338   2.659   6.762   0.159  0.2265 -0.2904 -0.1378
 3979WAT     H112339   2.617   6.811   0.230 -1.5533 -0.9251 -0.6998
 3979WAT     H212340   2.697   6.829   0.103 -2.2648  0.5490 -0.9714
 3980WAT      O12341   0.396   3.875   4.025  0.5464  0.2805  0.1305
 3980WAT     H112342   0.458   3.803   4.014  0.9996  0.5839  0.6012
 3980WAT     H212343   0.373   3.873   4.118 -0.1283  0.1984 -0.0297
 3981WAT      O12344   6.040   5.988   2.573  0.6358  0.3826  0.4744
 3981WAT     H112345   6.090   6.065   2.599  0.3293  0.8814 -0.3778
 3981WAT     H212346   6.060   5.923   2.640  1.4773  0.9591  0.8016
 3982WAT      O12347   6.549   5.216   5.507  0.0386  0.4131  0.2309
 3982WAT     H112348   6.580   5.126   5.520 -1.9320 -0.3102  0.2244
 3982WAT     H212349   6.513   5.241   5.591 -0.1763  0.8990 -0.0047
 3983WAT      O12350   4.455   2.875   4.558 -0.6880  0.0271 -0.6656
 3983WAT     H112351   4.524   2.882   4.623 -1.0090 -3.2716  0.2046
 3983WAT     H212352   4.413   2.961   4.559  0.7891  0.8323  1.7736
 3984WAT      O12353   6.999   4.798   2.254 -0.3314 -0.3866  0.1033
 3984WAT     H112354   6.925   4.737   2.259  0.3117 -1.1703  0.1766
 3984WAT     H212355   7.032   4.801   2.344  0.8989 -1.5272 -0.2813
 3985WAT      O12356   0.441   6.256   1.816  0.8983  0.3900  0.3966
 3985WAT     H112357   0.396   6.338   1.838 -4.6267 -1.5661 -1.7495
 3985WAT     H212358   0.422   6.198   1.889 -1.2702 -0.7671 -0.9885
 3986WAT      O12359   0.206   4.369   1.118  0.1046  0.2556 -0.9320
 3986WAT     H112360   0.138   4.317   1.161  0.8635 -1.1010 -1.2940
 3986WAT     H212361   0.278   4.370   1.180 -0.0962  1.3736 -0.7048
 3987WAT      O12362   5.110   1.136   1.923 -0.0574 -0.3335  0.0650
 3987WAT     H112363   5.125   1.191   1.846 -0.6697  0.1429  0.2804
 3987WAT     H212364   5.165   1.175   1.992  0.9299 -1.0932 -0.2626
 3988WAT      O12365   6.101   7.056   4.405 -0.5657 -0.1833  0.0868
 3988WAT     H112366   6.007   7.069   4.394 -0.5207 -1.4234 -2.6869
 3988WAT     H212367   6.112   6.961   4.399  0.9105  0.0033 -0.6321
 3989WAT      O12368   7.630   4.643   4.779 -0.4373  0.3672  0.6522
 3989WAT     H112369   7.548   4.670   4.736 -0.0414 -0.0703 -0.4100
 3989WAT     H212370   7.664   4.573   4.723 -0.4108 -0.9625  2.2463
 3990WAT      O12371   0.544   2.892   5.390 -0.8253  0.2358 -0.2190
 3990WAT     H112372   0.615   2.952   5.365  0.4547 -1.1086  0.1163
 3990WAT     H212373   0.491   2.943   5.452 -1.1846  1.8631 -1.7591
 3991WAT      O12374   1.577   2.201   0.554 -0.0922  0.4063  0.2109
 3991WAT     H112375   1.556   2.127   0.612  1.4299  0.3458  0.7602
 3991WAT     H212376   1.669   2.187   0.532  0.0891  1.8897 -0.0472
 3992WAT      O12377   0.789   2.136   5.651  0.0080 -0.1501 -0.3257
 3992WAT     H112378   0.784   2.224   5.686  0.3506 -0.6449  1.0296
 3992WAT     H212379   0.763   2.079   5.724  0.8791 -1.2242 -0.8174
 3993WAT      O12380   1.443   0.376   1.110  0.0754  0.1018 -0.1262
 3993WAT     H112381   1.455   0.327   1.192  2.8725  1.7705  0.5871
 3993WAT     H212382   1.455   0.311   1.041  1.1532 -0.6998  0.7843
 3994WAT      O12383   3.990   0.626   2.124 -0.3768  0.1613 -0.1556
 3994WAT     H112384   3.989   0.620   2.219 -0.4371 -0.5793 -0.1969
 3994WAT     H212385   3.977   0.536   2.094  1.5431  0.0578 -0.8505
 3995WAT      O12386   5.575   2.937   2.093 -0.4590  0.1609  0.1521
 3995WAT     H112387   5.575   2.960   2.185 -3.4748  2.4824 -0.2666
 3995WAT     H212388   5.625   3.008   2.051  1.6894 -1.3500 -0.0483
 3996WAT      O12389   6.147   2.404   0.784 -0.6405  0.0349  0.3862
 3996WAT     H112390   6.059   2.415   0.749 -1.3603 -1.1181  1.7264
 3996WAT     H212391   6.176   2.318   0.753 -0.5907 -0.2340  1.1497
 3997WAT      O12392   6.639   3.421   1.178  0.5359  0.8363 -0.0893
 3997WAT     H112393   6.591   3.499   1.150 -0.4263  0.1846 -0.3181
 3997WAT     H212394   6.656   3.435   1.271 -0.0527  1.1143 -0.0180
 3998WAT      O12395   5.981   3.553   0.529 -0.2199 -0.1742  0.4607
 3998WAT     H112396   5.996   3.539   0.623 -1.2873 -1.1400  0.5105
 3998WAT     H212397   5.889   3.576   0.523 -0.2675 -0.5643 -0.3964
 3999WAT      O12398   3.124   2.283   1.004 -1.4091 -0.2964 -0.1543
 3999WAT     H112399   3.088   2.271   1.092 -2.4412 -1.5077 -0.6937
 3999WAT     H212400   3.107   2.199   0.960 -1.3402  0.4330 -1.6490
 4000WAT      O12401   0.393   4.435   5.291  0.1685  0.1529 -0.1325
 4000WAT     H112402   0.452   4.507   5.270  2.2743 -1.3937  0.1712
 4000WAT     H212403   0.371   4.448   5.383  1.4839 -0.1956  0.2513
 4001WAT      O12404   1.262   4.296   0.717 -0.1592 -0.2879 -0.0806
 4001WAT     H112405   1.311   4.379   0.715  1.7925 -1.3778 -1.3627
 4001WAT     H212406   1.178   4.319   0.755  0.9509  1.9385  1.2529
 4002WAT      O12407   0.663   4.918   5.158  0.3224 -0.1717  0.1968
 4002WAT     H112408   0.614   4.852   5.206 -1.6229  1.7717  1.0545
 4002WAT     H212409   0.599   4.956   5.097  1.0355  1.6658  0.5346
 4003WAT      O12410   4.204   1.636   0.705  0.6320 -0.0604  0.0801
 4003WAT     H112411   4.180   1.665   0.793 -0.2665 -1.2195  0.2396
 4003WAT     H212412   4.279   1.578   0.719 -0.0748 -0.9663  0.1968
 4004WAT      O12413   6.118   4.828   3.791 -0.2712 -0.6911  0.0570
 4004WAT     H112414   6.155   4.787   3.869 -1.3444 -1.8267  0.0072
 4004WAT     H212415   6.023   4.824   3.805 -0.4939 -1.2214 -1.4456
 4005WAT      O12416   3.807   6.467   0.132 -0.5686 -0.3996  0.0118
 4005WAT     H112417   3.807   6.385   0.181 -2.1384  0.2744  1.2422
 4005WAT     H212418   3.743   6.522   0.177  1.0240  1.8287 -0.2567
 4006WAT      O12419   3.784   4.502   2.209 -0.3751  0.3813 -0.7343
 4006WAT     H112420   3.865   4.507   2.260 -0.5012  1.8239 -0.6299
 4006WAT     H212421   3.715   4.508   2.274 -0.6317 -1.8184 -0.7230
 4007WAT      O12422   6.101   6.589   1.453  0.7873 -0.0605  0.1986
 4007WAT     H112423   6.089   6.631   1.538  0.4392 -0.7139  0.4784
 4007WAT     H212424   6.192   6.557   1.455  1.1653  0.9579 -0.1510
 4008WAT      O12425   3.256   2.357   2.801 -0.5200  0.1720  0.1846
 4008WAT     H112426   3.259   2.267   2.831 -0.8092  0.2414  0.4266
 4008WAT     H212427   3.300   2.407   2.870 -0.3467  0.2150  0.0441
 4009WAT      O12428   4.958   3.621   3.650 -0.6159 -0.3703 -0.1579
 4009WAT     H112429   4.979   3.528   3.658  1.2405  0.0939  0.6980
 4009WAT     H212430   4.956   3.654   3.739  0.0666  0.6852 -0.5155
 4010WAT      O12431   1.345   6.238   2.266 -0.3455  0.2680  0.4364
 4010WAT     H112432   1.341   6.164   2.206  1.8048  0.2526  0.2194
 4010WAT     H212433   1.409   6.211   2.332  0.9477  2.1152  0.0157
 4011WAT      O12434   0.092   4.867   5.896 -0.2463  0.1220  0.1637
 4011WAT     H112435   0.000   4.892   5.900 -0.5792 -0.9802 -0.3601
 4011WAT     H212436   0.137   4.935   5.947 -1.0259  2.1029 -1.6406
 4012WAT      O12437   1.902   5.562   2.757  0.5023  0.3336  0.2087
 4012WAT     H112438   1.953   5.574   2.837 -0.3683  1.1386  0.6632
 4012WAT     H212439   1.852   5.643   2.748 -0.0591 -0.0922 -0.6883
 4013WAT      O12440   1.946   3.011   4.338  0.2973  0.4882 -0.4404
 4013WAT     H112441   1.926   3.013   4.431 -2.7277  2.8455 -1.0009
 4013WAT     H212442   2.037   2.982   4.334  0.3649 -0.2446  3.1697
 4014WAT      O12443   5.172   4.708   2.733 -0.2541  0.0521  0.2531
 4014WAT     H112444   5.168   4.801   2.711 -0.1687  0.3766  1.5075
 4014WAT     H212445   5.266   4.688   2.733 -0.2937 -0.1318 -0.3972
 4015WAT      O12446   6.823   3.393   5.183 -0.1044  0.2980 -0.1383
 4015WAT     H112447   6.747   3.425   5.230  0.6618 -0.3965  1.6625
 4015WAT     H212448   6.878   3.470   5.171  0.5852  0.2003  1.9335
 4016WAT      O12449   6.387   3.007   3.206 -0.0252 -0.0544 -0.0269
 4016WAT     H112450   6.450   3.003   3.278 -1.4827  0.8630  1.3557
 4016WAT     H212451   6.331   2.931   3.218 -1.1081  0.8228  0.6504
 4017WAT      O12452   5.511   5.569   5.016 -0.6194  0.6813 -0.0901
 4017WAT     H112453   5.482   5.478   5.006 -1.7063  1.0308 -0.2328
 4017WAT     H212454   5.451   5.607   5.081  0.3706  1.0664  0.6213
 4018WAT      O12455   6.090   1.499   0.505  0.2419 -0.5544  0.1890
 4018WAT     H112456   6.155   1.567   0.488 -0.3138  0.4315  1.8374
 4018WAT     H212457   6.128   1.420   0.466  1.6889  0.3129 -0.2566
 4019WAT      O12458   4.196   3.531   3.265 -0.5218  0.1366  0.0278
 4019WAT     H112459   4.251   3.580   3.326 -1.5380 -0.1630  1.2529
 4019WAT     H212460   4.143   3.475   3.322 -0.1010 -1.6630 -1.2608
 4020WAT      O12461   7.425   3.922   4.263 -0.0820 -0.1282 -0.0632
 4020WAT     H112462   7.395   3.919   4.354 -4.0207  1.0098 -1.1257
 4020WAT     H212463   7.435   3.830   4.238  1.5819 -0.4541  1.5862
 4021WAT      O12464   5.717   3.374   3.326  0.1075  0.5128  0.3910
 4021WAT     H112465   5.803   3.334   3.336 -0.6253 -0.9840  1.1962
 4021WAT     H212466   5.705   3.425   3.406 -0.3829 -0.6280  1.0783
 4022WAT      O12467   5.037   1.811   3.764  0.0811  0.2120 -0.3969
 4022WAT     H112468   4.977   1.798   3.691 -0.7673  1.7700 -0.0211
 4022WAT     H212469   5.086   1.891   3.741  0.8802 -0.1393  0.0411
 4023WAT      O12470   2.645   2.998   6.136 -0.0105  0.0715 -0.0394
 4023WAT     H112471   2.594   2.934   6.186 -1.0910  1.7770  1.1247
 4023WAT     H212472   2.600   3.081   6.150  1.3903  1.1225 -1.4610
 4024WAT      O12473   1.016   2.482   0.735  0.4997 -0.5972 -0.3242
 4024WAT     H112474   1.075   2.557   0.748  0.1600 -0.4375  0.3634
 4024WAT     H212475   1.071   2.415   0.696  0.9244 -0.1441 -0.5194
 4025WAT      O12476   6.430   3.286   1.040  0.3745  0.1584 -0.0234
 4025WAT     H112477   6.425   3.329   0.955 -0.8643  1.6826  0.7808
 4025WAT     H212478   6.488   3.342   1.092 -1.2931  0.9307  1.0556
 4026WAT      O12479   6.157   3.419   2.694  0.9889  0.1232 -0.4872
 4026WAT     H112480   6.217   3.384   2.761  0.6635  0.3594 -0.0702
 4026WAT     H212481   6.185   3.509   2.681 -0.3174  0.7765  0.9471
 4027WAT      O12482   3.617   5.300   0.260  0.1851 -0.4615  0.4543
 4027WAT     H112483   3.577   5.300   0.347  0.7678  1.5327  0.7571
 4027WAT     H212484   3.636   5.207   0.243  0.6403 -0.8416  2.7082
 4028WAT      O12485   3.869   4.389   6.160  0.1483  0.1042 -0.4978
 4028WAT     H112486   3.955   4.352   6.177 -0.0190  0.7446  2.0851
 4028WAT     H212487   3.881   4.483   6.165 -0.6083  0.2293 -0.7574
 4029WAT      O12488   7.324   5.359   4.091 -0.2873  0.2313  0.2959
 4029WAT     H112489   7.349   5.270   4.118  0.7373  0.4918  0.2228
 4029WAT     H212490   7.309   5.406   4.173  1.5751  0.6619  0.4385
 4030WAT      O12491   7.288   3.483   2.272 -0.3019  0.4190 -0.0223
 4030WAT     H112492   7.295   3.531   2.354  0.7374  1.0913 -0.4890
 4030WAT     H212493   7.194   3.480   2.254 -0.6616 -0.8643  1.8215
 4031WAT      O12494   6.957   4.746   1.732  0.8329  0.4702  0.0278
 4031WAT     H112495   6.899   4.701   1.670 -0.0766  0.0912  1.1194
 4031WAT     H212496   7.038   4.695   1.731  0.6973  0.2639 -0.5886
 4032WAT      O12497   5.515   5.880   4.589  0.0649  0.3292  0.3477
 4032WAT     H112498   5.500   5.954   4.647 -0.2885  0.8080 -0.3435
 4032WAT     H212499   5.445   5.818   4.610 -1.6959  1.6155 -1.3421
 4033WAT      O12500   3.716   2.936   2.981 -0.2289 -0.0996 -0.6513
 4033WAT     H112501   3.655   3.010   2.983 -0.9048 -0.5606 -2.3656
 4033WAT     H212502   3.660   2.860   2.964  0.5899 -0.8452 -0.0847
 4034WAT      O12503   1.868   5.022   2.527  0.1432 -0.4804  0.0244
 4034WAT     H112504   1.897   5.109   2.555 -1.7543 -0.1412  1.1650
 4034WAT     H212505   1.833   5.035   2.439  0.3439 -0.1960 -0.0136
 4035WAT      O12506   5.823   5.363   6.107  0.3577 -0.5019  0.4051
 4035WAT     H112507   5.906   5.404   6.084 -0.0830  1.2258  1.6996
 4035WAT     H212508   5.786   5.419   6.175 -2.1435 -0.8873 -0.5109
 4036WAT      O12509   4.458   3.976   5.598 -0.1955  0.3829  0.0779
 4036WAT     H112510   4.398   3.901   5.592 -0.7144  0.7722  0.3826
 4036WAT     H212511   4.402   4.050   5.618  0.2796  0.9256 -0.5689
 4037WAT      O12512   2.045   4.787   4.358  0.0003  0.1631  0.0650
 4037WAT     H112513   1.998   4.870   4.357 -0.3050  0.0016  0.6416
 4037WAT     H212514   2.102   4.793   4.434  0.0007 -0.1433  0.0892
 4038WAT      O12515   6.860   2.677   1.082 -0.3483 -0.0192 -0.1423
 4038WAT     H112516   6.874   2.668   1.176 -2.4281 -2.5641  0.0520
 4038WAT     H212517   6.940   2.719   1.050  0.6938  0.3592  2.6432
 4039WAT      O12518   4.123   3.366   5.330 -0.3759  0.1224  0.0667
 4039WAT     H112519   4.200   3.360   5.387  0.2825 -0.4150 -0.8522
 4039WAT     H212520   4.092   3.276   5.323 -1.2435  0.3652  0.6140
 4040WAT      O12521   4.758   1.647   0.503  0.6763 -0.2886 -0.1042
 4040WAT     H112522   4.665   1.672   0.500  0.5495 -0.2282  2.2926
 4040WAT     H212523   4.801   1.706   0.441 -1.0351 -1.3539 -2.4901
 4041WAT      O12524   1.220   3.171   3.980 -0.6973 -1.0577 -0.1825
 4041WAT     H112525   1.287   3.124   3.931 -0.3214 -1.0812  0.3430
 4041WAT     H212526   1.201   3.115   4.056  0.3847 -0.0037  0.9171
 4042WAT      O12527   6.769   2.636   1.763 -0.1983  0.1045  0.6975
 4042WAT     H112528   6.748   2.662   1.853 -1.5502  1.0378  0.1448
 4042WAT     H212529   6.821   2.709   1.729 -1.0639  0.5100  0.2260
 4043WAT      O12530   1.375   4.988   3.260  0.7674 -0.3164 -0.5364
 4043WAT     H112531   1.468   4.985   3.282  0.8140  0.5639 -0.5544
 4043WAT     H212532   1.340   4.905   3.290  2.0715 -1.8745 -2.9582
 4044WAT      O12533   0.052   3.621   2.868  0.1639  0.0808 -0.0360
 4044WAT     H112534  -0.029   3.624   2.919 -0.6375  4.0322 -1.1840
 4044WAT     H212535   0.111   3.682   2.912  1.4796 -0.5346 -0.8661
 4045WAT      O12536   6.232   6.344   3.739  0.0168  0.4723  0.3418
 4045WAT     H112537   6.164   6.401   3.702  0.2180  0.8398  0.5378
 4045WAT     H212538   6.278   6.310   3.663 -0.0197  0.6772  0.2268
 4046WAT      O12539   7.217   2.551   4.077  0.5258 -0.1837  0.8443
 4046WAT     H112540   7.175   2.599   4.149 -0.2052 -0.0845  0.3682
 4046WAT     H212541   7.237   2.465   4.114 -0.4687 -0.3716  0.9891
 4047WAT      O12542   2.710   0.985   1.406 -0.1949  0.2787 -0.4050
 4047WAT     H112543   2.779   1.019   1.463 -1.4326 -0.4653  1.6258
 4047WAT     H212544   2.725   0.891   1.403 -1.4878  0.0033  0.6625
 4048WAT      O12545   2.346   6.689   4.614 -0.2786 -0.2618 -0.3763
 4048WAT     H112546   2.291   6.620   4.576  0.5021 -1.9905  1.4305
 4048WAT     H212547   2.435   6.660   4.598  0.0892  0.8581 -0.4265
 4049WAT      O12548   4.685   0.235   3.146  0.4184  0.2503 -0.2545
 4049WAT     H112549   4.624   0.164   3.168 -0.9953  1.5543  0.2532
 4049WAT     H212550   4.751   0.232   3.215  0.0375 -0.2010  0.1037
 4050WAT      O12551   2.973   3.781   0.948  0.1295  0.3303  0.0303
 4050WAT     H112552   3.010   3.741   0.870 -0.2858  0.1786 -0.0944
 4050WAT     H212553   3.045   3.783   1.011  1.2142  2.7469 -1.1449
 4051WAT      O12554   2.061   4.163   4.755 -0.0064 -0.5996 -0.1357
 4051WAT     H112555   2.040   4.227   4.823  1.5200  0.0022 -0.1982
 4051WAT     H212556   2.016   4.083   4.783 -0.7956  0.1023  0.6753
 4052WAT      O12557   6.724   3.166   5.504 -0.2817  0.2405  0.7030
 4052WAT     H112558   6.812   3.181   5.469 -0.6620 -0.0577 -0.4375
 4052WAT     H212559   6.697   3.252   5.538 -0.4641  0.9723 -1.1570
 4053WAT      O12560   5.401   3.898   5.049  0.1070  0.0206 -0.6304
 4053WAT     H112561   5.318   3.940   5.026 -0.7130 -2.4354 -2.6444
 4053WAT     H212562   5.447   3.963   5.102 -0.8457  3.5875 -3.7393
 4054WAT      O12563   6.301   0.469   3.389  0.1173 -0.1269  0.4063
 4054WAT     H112564   6.258   0.429   3.314 -0.7180  1.4552 -0.0110
 4054WAT     H212565   6.373   0.410   3.410  1.8970  0.4956 -3.1319
 4055WAT      O12566   4.118   7.182   3.885 -0.1289 -0.3913 -0.6726
 4055WAT     H112567   4.166   7.100   3.882 -0.5541 -0.6623 -0.1692
 4055WAT     H212568   4.118   7.207   3.977 -0.5661 -0.1621 -0.7330
 4056WAT      O12569   1.172   6.274   4.083 -0.0246 -0.5819  0.3252
 4056WAT     H112570   1.084   6.311   4.081  0.1737 -0.1251 -1.3333
 4056WAT     H212571   1.180   6.237   4.171 -1.5522  0.1144  0.7993
 4057WAT      O12572   2.233   4.824   2.348 -0.2788 -0.5883 -0.1663
 4057WAT     H112573   2.221   4.880   2.424  0.7602  0.0695 -0.4629
 4057WAT     H212574   2.224   4.735   2.383 -0.9109 -0.2722  0.5063
 4058WAT      O12575   4.532   1.133   1.486  0.5622  0.7848 -0.3051
 4058WAT     H112576   4.579   1.077   1.423 -2.5089 -0.8586 -1.3246
 4058WAT     H212577   4.528   1.081   1.566  0.4615  0.9084 -0.2303
 4059WAT      O12578   1.621   0.999   0.582  0.2364  0.4545  0.4160
 4059WAT     H112579   1.586   1.037   0.663  1.8395  1.0340  0.8757
 4059WAT     H212580   1.612   1.069   0.517 -1.6519 -0.2313 -0.1149
 4060WAT      O12581   3.331   1.344   0.147  0.1890  0.0798  0.0818
 4060WAT     H112582   3.312   1.428   0.190  1.1442 -0.3398  1.4021
 4060WAT     H212583   3.412   1.360   0.098 -0.1599  0.1927 -0.4568
 4061WAT      O12584   1.799   1.471   3.887  0.2238  0.0280  0.0039
 4061WAT     H112585   1.796   1.420   3.806  0.4826  0.0994 -0.0504
 4061WAT     H212586   1.751   1.417   3.950 -1.4652  0.7320 -0.6091
 4062WAT      O12587   7.427   6.456   1.357  0.0774 -0.1814  0.1284
 4062WAT     H112588   7.348   6.424   1.313 -0.5134  1.7862 -0.3173
 4062WAT     H212589   7.460   6.526   1.301  1.7976 -0.5055  0.6498
 4063WAT      O12590   5.930   4.840   2.601  0.3681  0.1292 -0.2912
 4063WAT     H112591   5.915   4.867   2.511  0.3900 -0.4505 -0.4717
 4063WAT     H212592   5.860   4.777   2.620  0.9406 -0.5026 -0.2375
 4064WAT      O12593   0.056   0.619   5.279 -0.1072  0.2637  0.5336
 4064WAT     H112594  -0.031   0.606   5.317 -0.3258  1.4756  0.4655
 4064WAT     H212595   0.107   0.545   5.312 -1.1345 -0.4373  0.6226
 4065WAT      O12596   7.636   3.011   1.151  0.0979  1.0261  0.5488
 4065WAT     H112597   7.638   3.106   1.136 -0.9860  0.6345 -2.6859
 4065WAT     H212598   7.549   2.994   1.187  0.0796  1.1825  0.5789
 4066WAT      O12599   2.865   0.790   0.044  0.6600  0.2303 -0.2363
 4066WAT     H112600   2.784   0.835   0.067 -0.8225 -0.5636 -3.3324
 4066WAT     H212601   2.866   0.713   0.100 -1.7818 -0.7073 -1.3441
 4067WAT      O12602   7.314   6.974   5.540 -0.2113 -0.3138 -0.1504
 4067WAT     H112603   7.360   7.052   5.511 -0.7176  0.4516  1.0249
 4067WAT     H212604   7.243   7.007   5.595 -0.4620 -1.5945  0.3255
 4068WAT      O12605   2.327   0.943   5.656  0.7510  0.2689  0.4258
 4068WAT     H112606   2.372   0.898   5.728  1.4837  0.2802 -0.0122
 4068WAT     H212607   2.270   1.007   5.700 -3.1227 -3.3600  1.3061
 4069WAT      O12608   4.979   7.113   0.646 -0.3493  0.2261 -0.2885
 4069WAT     H112609   4.969   7.103   0.741 -1.1420 -1.8218 -0.5269
 4069WAT     H212610   4.894   7.146   0.617 -1.1372 -1.8483 -0.5387
 4070WAT      O12611   7.215   2.691   5.799  0.0473 -0.1422 -0.0288
 4070WAT     H112612   7.262   2.654   5.874  1.4171 -0.9202 -1.2231
 4070WAT     H212613   7.129   2.650   5.803  0.6965 -1.5595  0.1220
 4071WAT      O12614   4.124   0.205   4.010 -0.5228  0.1868  0.1333
 4071WAT     H112615   4.042   0.171   3.973 -0.6995  2.1990 -1.5400
 4071WAT     H212616   4.096   0.274   4.071 -0.1619  2.6790 -2.3333
 4072WAT      O12617   0.897   6.998   4.231  0.1468 -0.3094  0.1527
 4072WAT     H112618   0.932   6.971   4.316  0.8075 -0.1318 -0.0603
 4072WAT     H212619   0.906   7.093   4.230  0.3839 -0.3357 -0.2230
 4073WAT      O12620   6.593   1.986   1.833 -0.0333  0.2268  0.0638
 4073WAT     H112621   6.624   2.073   1.856  0.2706  0.3229 -0.6998
 4073WAT     H212622   6.658   1.926   1.870  0.7598  0.4027 -1.0252
 4074WAT      O12623   2.689   3.724   0.773 -0.2794  0.0023  0.2055
 4074WAT     H112624   2.731   3.642   0.748 -0.9662  0.3433 -2.2409
 4074WAT     H212625   2.601   3.699   0.802 -0.5768 -0.1077 -0.7838
 4075WAT      O12626   4.951   3.967   5.730  0.5355  0.2584  0.2856
 4075WAT     H112627   4.989   4.055   5.732  1.3588 -0.0878  2.8011
 4075WAT     H212628   4.884   3.968   5.798 -1.0716 -0.4470 -1.1903
 4076WAT      O12629   7.226   0.968   4.506 -0.0794  0.5507 -0.2411
 4076WAT     H112630   7.187   0.996   4.589 -1.1156 -1.3178 -0.0388
 4076WAT     H212631   7.310   1.013   4.503 -1.2364  2.9498  0.4067
 4077WAT      O12632   5.757   0.671   0.233  0.2774  0.3022 -0.1691
 4077WAT     H112633   5.851   0.652   0.235 -0.3143 -3.1502  0.3233
 4077WAT     H212634   5.741   0.698   0.142  1.4216 -1.3792 -0.9421
 4078WAT      O12635   2.915   5.967   0.027  0.7435  0.7001 -0.3940
 4078WAT     H112636   2.902   5.909   0.102 -1.1486  0.7300 -0.6569
 4078WAT     H212637   2.888   6.053   0.059  0.2697  0.7828 -0.9972
 4079WAT      O12638   3.553   4.306   4.760  0.4055 -0.4201 -0.7665
 4079WAT     H112639   3.476   4.362   4.764 -0.0311 -1.0344  2.3522
 4079WAT     H212640   3.518   4.217   4.771  1.4221 -0.9347 -1.5001
 4080WAT      O12641   3.719   6.011   5.843 -0.2844 -0.2221  0.0929
 4080WAT     H112642   3.798   6.055   5.872  0.0065 -0.4761 -0.2930
 4080WAT     H212643   3.658   6.020   5.916  0.3753 -0.7253  0.7301
 4081WAT      O12644   4.115   4.296   6.200  0.1598  0.4343 -0.2177
 4081WAT     H112645   4.154   4.209   6.203  1.9397  1.0449 -2.5659
 4081WAT     H212646   4.185   4.354   6.230 -0.0787  1.2637 -1.2070
 4082WAT      O12647   6.788   6.232   4.189  0.4181  0.4190  0.1153
 4082WAT     H112648   6.743   6.250   4.272  2.9830  0.9257  1.5046
 4082WAT     H212649   6.837   6.152   4.205  0.3786  0.1013 -1.2045
 4083WAT      O12650   6.141   5.094   1.660  0.1412 -0.1326  0.0989
 4083WAT     H112651   6.156   5.000   1.646  0.9297  0.0244 -0.1928
 4083WAT     H212652   6.058   5.099   1.707  0.8432 -1.0743  1.5184
 4084WAT      O12653   1.262   3.741   0.883 -0.0448 -0.0179 -0.5022
 4084WAT     H112654   1.179   3.738   0.930  0.7882  0.0258  1.0531
 4084WAT     H212655   1.313   3.668   0.919  1.3202  1.1496  0.0472
 4085WAT      O12656   2.565   4.448   2.295  0.2042 -0.2392  0.1906
 4085WAT     H112657   2.528   4.510   2.358 -0.7104 -0.4750 -0.0942
 4085WAT     H212658   2.523   4.365   2.316  0.3834 -0.4602 -0.3140
 4086WAT      O12659   4.572   3.430   1.337 -0.0220  0.0470 -0.5200
 4086WAT     H112660   4.486   3.471   1.326 -1.0324 -1.5771  0.8229
 4086WAT     H212661   4.606   3.468   1.419  2.3652  3.5399 -2.8348
 4087WAT      O12662   5.757   3.150   2.663  0.7561  0.2005 -0.8544
 4087WAT     H112663   5.839   3.153   2.711 -0.2472  0.5018  0.9476
 4087WAT     H212664   5.722   3.239   2.669 -0.0094 -0.0823 -0.9919
 4088WAT      O12665   3.774   0.499   1.321 -0.2670  0.1072  0.3922
 4088WAT     H112666   3.744   0.443   1.392  0.4146 -0.6220  0.1251
 4088WAT     H212667   3.855   0.538   1.354 -0.4159  0.4513  0.3480
 4089WAT      O12668   6.179   1.977   5.281 -0.1790 -0.0948 -0.3160
 4089WAT     H112669   6.093   2.005   5.248 -0.1920  0.2182 -0.0276
 4089WAT     H212670   6.202   2.043   5.346  1.0335  0.7626 -1.5543
 4090WAT      O12671   2.353   3.128   3.835 -0.0004  0.4117 -0.6114
 4090WAT     H112672   2.302   3.123   3.916  0.7294  1.1387 -0.0919
 4090WAT     H212673   2.288   3.118   3.765 -0.5861 -0.6811  0.0583
 4091WAT      O12674   4.157   2.125   3.950  0.7630  0.1903 -0.5002
 4091WAT     H112675   4.132   2.215   3.931  0.7918  0.0018 -1.4530
 4091WAT     H212676   4.202   2.130   4.034  1.2881  1.1515 -0.8238
 4092WAT      O12677   5.814   2.187   6.037  0.2613 -0.2702 -0.1130
 4092WAT     H112678   5.818   2.091   6.037 -0.6585 -0.3440 -1.5406
 4092WAT     H212679   5.889   2.214   5.984 -0.7209 -0.3288 -1.5887
 4093WAT      O12680   6.401   4.889   1.623 -0.5531 -0.7272 -0.3832
 4093WAT     H112681   6.374   4.881   1.714  0.0511 -1.0379 -0.2217
 4093WAT     H212682   6.476   4.948   1.625 -1.0401 -0.0856 -0.7870
 4094WAT      O12683   6.629   1.101   1.754  0.3783  0.7272 -0.4111
 4094WAT     H112684   6.620   1.194   1.774 -0.5369  0.6613 -0.5041
 4094WAT     H212685   6.679   1.100   1.671  0.9358  1.1028 -0.0896
 4095WAT      O12686   0.061   1.075   3.403  0.5358 -0.3726  0.0319
 4095WAT     H112687   0.002   1.120   3.342 -0.1310 -0.1681  0.8220
 4095WAT     H212688   0.005   1.015   3.451  1.1285 -0.8135  0.1842
 4096WAT      O12689   0.872   3.220   4.238 -0.4970  0.3560  0.0297
 4096WAT     H112690   0.815   3.211   4.315  0.0945 -0.3449  0.3916
 4096WAT     H212691   0.960   3.200   4.270 -0.3770 -0.9834 -1.0368
 4097WAT      O12692   4.352   1.628   5.564  0.0905 -0.3190 -0.2104
 4097WAT     H112693   4.435   1.597   5.527  0.1572  1.1558 -1.3563
 4097WAT     H212694   4.327   1.559   5.626  2.5663 -0.4225  0.7828
 4098WAT      O12695   0.445   5.030   5.544  0.0119 -0.0533  0.7595
 4098WAT     H112696   0.383   4.979   5.595  0.1817 -0.3845  0.6359
 4098WAT     H212697   0.529   4.985   5.555  0.1964  0.2890  0.7817
 4099WAT      O12698   3.551   1.646   5.753  0.3317 -0.0080 -0.0039
 4099WAT     H112699   3.545   1.736   5.723 -0.6546  0.3819  1.2988
 4099WAT     H212700   3.614   1.605   5.693 -2.3219  0.3986 -3.3822
 4100WAT      O12701   0.152   0.573   4.746 -0.4420  0.0142 -0.4410
 4100WAT     H112702   0.225   0.513   4.758  0.3197  0.5922 -2.0256
 4100WAT     H212703   0.096   0.558   4.823  0.9029 -1.0248  0.3726
 4101WAT      O12704   6.322   6.480   0.686 -0.0687 -0.4388  0.1325
 4101WAT     H112705   6.370   6.546   0.736 -0.8875 -1.2611  2.1508
 4101WAT     H212706   6.262   6.529   0.631 -0.3666  0.5473  1.2864
 4102WAT      O12707   7.326   2.650   5.087 -0.6832  0.4121 -0.1808
 4102WAT     H112708   7.319   2.563   5.125  0.2020  0.0967 -0.6909
 4102WAT     H212709   7.321   2.710   5.161 -1.0171 -0.0883  0.2043
 4103WAT      O12710   0.064   2.349   3.488 -0.2900  0.1185 -0.4142
 4103WAT     H112711   0.147   2.378   3.527 -1.7434  0.8827  2.3467
 4103WAT     H212712   0.033   2.279   3.545 -2.5475  1.2985 -0.0791
 4104WAT      O12713   3.029   2.136   0.314 -0.7625 -0.1266 -0.5677
 4104WAT     H112714   2.951   2.110   0.265 -1.5162  1.5505 -0.3027
 4104WAT     H212715   2.998   2.146   0.404  0.2726 -1.6495 -0.0026
 4105WAT      O12716   7.124   4.449   3.699 -0.4777  0.2209  0.3507
 4105WAT     H112717   7.136   4.364   3.656 -1.6903  0.1013  0.2163
 4105WAT     H212718   7.213   4.478   3.719  0.1458  0.1584 -2.0021
 4106WAT      O12719   5.066   6.741   1.690 -0.5800  0.2531  0.6829
 4106WAT     H112720   5.140   6.776   1.739 -0.2804 -1.3946  1.4736
 4106WAT     H212721   5.010   6.816   1.674  1.3491  1.5947 -0.1380
 4107WAT      O12722   0.900   3.027   3.124  0.1687  0.2110 -0.1554
 4107WAT     H112723   0.894   2.940   3.165  0.1313 -0.3220 -1.2700
 4107WAT     H212724   0.964   3.074   3.178  1.3020 -1.0073 -0.3956
 4108WAT      O12725   5.415   6.301   4.974 -0.1703 -0.0133  0.5846
 4108WAT     H112726   5.435   6.237   5.043 -1.6608 -2.2124 -0.8980
 4108WAT     H212727   5.321   6.295   4.962 -0.3050  2.2617  0.1102
 4109WAT      O12728   0.380   6.492   3.013 -0.5910  0.1836 -0.1022
 4109WAT     H112729   0.312   6.481   2.947 -1.6492 -0.2465  1.0271
 4109WAT     H212730   0.371   6.416   3.070 -1.1451  1.6171  1.8028
 4110WAT      O12731   7.451   3.936   3.947  0.4120 -0.0748  0.2666
 4110WAT     H112732   7.538   3.924   3.909  0.9151  0.8727  1.0806
 4110WAT     H212733   7.465   3.994   4.022 -0.9759  0.4043  0.1813
 4111WAT      O12734   6.164   3.454   2.433 -0.8428  0.6668 -0.2568
 4111WAT     H112735   6.248   3.499   2.434 -0.2950 -0.3113 -0.0218
 4111WAT     H212736   6.149   3.428   2.524  0.8149 -2.9865 -0.8243
 4112WAT      O12737   0.044   4.124   5.207  0.2437  0.1952 -0.0969
 4112WAT     H112738   0.018   4.185   5.138 -0.1213 -0.0734 -0.2069
 4112WAT     H212739   0.127   4.157   5.240 -0.4807  1.3873  0.6165
 4113WAT      O12740   4.534   6.648   0.271 -0.1925 -0.6118  0.0415
 4113WAT     H112741   4.623   6.658   0.238  0.7978  0.1154  2.6841
 4113WAT     H212742   4.490   6.730   0.246  0.4098 -0.2440  0.1663
 4114WAT      O12743   5.903   4.990   1.436  0.5352 -0.0148  0.2876
 4114WAT     H112744   5.938   5.029   1.357 -0.5758  1.6091  0.5330
 4114WAT     H212745   5.928   5.050   1.506 -2.8835  1.5008  0.4278
 4115WAT      O12746   1.674   5.616   1.547 -0.0194 -0.2408  0.0286
 4115WAT     H112747   1.594   5.622   1.598  0.7812  0.3733  1.2621
 4115WAT     H212748   1.744   5.614   1.612  1.0049 -0.1306 -1.0329
 4116WAT      O12749   2.340   4.247   5.406 -0.0525  0.1650  0.2442
 4116WAT     H112750   2.246   4.266   5.413  0.2627  1.2032  2.9633
 4116WAT     H212751   2.351   4.164   5.452  0.4938  0.7026  1.1187
 4117WAT      O12752   5.186   5.215   2.781  0.8645  0.1366 -0.0663
 4117WAT     H112753   5.245   5.211   2.856 -1.1725  2.2893  1.8247
 4117WAT     H212754   5.213   5.294   2.733 -1.3353  2.2072  1.8123
 4118WAT      O12755   7.514   7.071   4.468  0.0597 -0.0667 -0.5662
 4118WAT     H112756   7.592   7.031   4.506 -1.5178 -0.8943  2.0499
 4118WAT     H212757   7.523   7.164   4.489  0.8687  0.0377 -1.3224
 4119WAT      O12758   6.803   2.130   1.296  0.4399 -0.2179 -0.0550
 4119WAT     H112759   6.769   2.097   1.213 -4.3602  1.1084  1.0873
 4119WAT     H212760   6.782   2.061   1.360  0.4177  0.4426  0.6677
 4120WAT      O12761   6.998   1.213   0.025  0.3008  0.7458 -0.0003
 4120WAT     H112762   7.053   1.282   0.063  0.8468  1.4196 -1.8782
 4120WAT     H212763   7.050   1.133   0.035  1.0226  1.1413 -0.4950
 4121WAT      O12764   6.749   3.626   1.730 -0.4727 -0.4591 -0.0113
 4121WAT     H112765   6.718   3.538   1.710 -3.1294  0.3051  0.3091
 4121WAT     H212766   6.736   3.675   1.648 -0.0806 -0.1034  0.1330
 4122WAT      O12767   3.889   3.222   2.019  0.3429  0.0913 -0.1937
 4122WAT     H112768   3.803   3.183   2.036  0.3586 -0.7964 -1.8750
 4122WAT     H212769   3.869   3.310   1.987 -0.0375 -0.4125 -1.4271
 4123WAT      O12770   6.577   4.035   5.086 -0.2441  0.1389 -0.2248
 4123WAT     H112771   6.547   3.962   5.033 -0.2225  0.8953 -1.3274
 4123WAT     H212772   6.556   4.011   5.176 -1.5054 -0.6066 -0.7006
 4124WAT      O12773   3.424   2.926   0.289  0.3654  0.2300 -0.7184
 4124WAT     H112774   3.430   2.914   0.384 -0.9607  0.7323 -0.5414
 4124WAT     H212775   3.359   2.995   0.278  1.0146  0.6620 -1.9787
 4125WAT      O12776   1.370   6.148   1.807 -0.5622  0.2347  0.5442
 4125WAT     H112777   1.302   6.137   1.875 -1.9198  1.9682 -0.4710
 4125WAT     H212778   1.391   6.241   1.808 -0.2976  0.2240 -1.1262
 4126WAT      O12779   2.043   0.037   1.288 -0.3592  0.0937  0.0064
 4126WAT     H112780   2.135   0.036   1.314 -0.4416 -1.9913  0.4215
 4126WAT     H212781   1.997   0.079   1.360  0.1933  0.6395  0.0448
 4127WAT      O12782   7.104   0.207   1.795  0.2643  0.0583  0.7285
 4127WAT     H112783   7.085   0.265   1.868 -0.5842  0.0586  0.5086
 4127WAT     H212784   7.192   0.173   1.814  0.9836  1.7563  0.6274
 4128WAT      O12785   6.528   1.919   0.397 -0.6515 -0.0996 -0.4345
 4128WAT     H112786   6.562   1.868   0.324 -0.8831 -0.0358 -0.5884
 4128WAT     H212787   6.542   1.864   0.474  0.9510  0.4438 -0.3142
 4129WAT      O12788   5.746   2.212   3.043 -0.6131  0.0140 -0.1684
 4129WAT     H112789   5.663   2.174   3.072 -0.9645  1.1203  0.3065
 4129WAT     H212790   5.776   2.265   3.117 -0.9256  1.9118 -1.3381
 4130WAT      O12791   3.122   2.887   4.271 -0.1431  0.3134 -0.4808
 4130WAT     H112792   3.112   2.982   4.277  0.6201  0.4070 -0.5541
 4130WAT     H212793   3.033   2.854   4.257 -0.3338  1.0635 -1.0981
 4131WAT      O12794   2.756   0.576   1.731 -0.7599  0.3577  0.3219
 4131WAT     H112795   2.682   0.546   1.678 -0.0637 -1.0537  0.1071
 4131WAT     H212796   2.820   0.505   1.727  0.3583  1.2722  1.0248
 4132WAT      O12797   0.840   2.758   4.758  0.7049  0.4512 -0.1956
 4132WAT     H112798   0.828   2.697   4.685  0.2659 -0.2620  0.4549
 4132WAT     H212799   0.752   2.791   4.776  0.5664 -0.4292  0.8825
 4133WAT      O12800   6.885   1.514   1.050 -0.3834 -0.3330  0.2284
 4133WAT     H112801   6.836   1.511   0.968 -1.0140 -0.1505  0.5915
 4133WAT     H212802   6.867   1.430   1.092  0.2765 -0.5982 -0.0031
 4134WAT      O12803   1.832   2.963   4.604 -0.3675 -0.1119  0.1442
 4134WAT     H112804   1.855   2.903   4.675 -1.2762  0.3447  0.8412
 4134WAT     H212805   1.740   2.943   4.586  0.1452 -1.0496 -1.7340
 4135WAT      O12806   4.979   2.283   2.758  0.0235 -0.6620 -0.4144
 4135WAT     H112807   5.027   2.353   2.802  1.3747 -1.7002 -0.1725
 4135WAT     H212808   4.897   2.275   2.808  0.3544 -0.0378  0.2485
 4136WAT      O12809   6.689   1.278   3.719  0.1295  0.3755 -0.3080
 4136WAT     H112810   6.685   1.216   3.791 -0.7387  0.5750 -0.1788
 4136WAT     H212811   6.756   1.341   3.745 -0.0994  0.3825  0.2729
 4137WAT      O12812   2.821   1.742   5.791  0.3648 -0.2648  0.2764
 4137WAT     H112813   2.860   1.686   5.858 -0.3199 -0.2521  0.6873
 4137WAT     H212814   2.762   1.800   5.839  0.3759  0.1937 -0.2572
 4138WAT      O12815   6.763   0.215   0.106 -0.2416  0.5352  0.5361
 4138WAT     H112816   6.672   0.227   0.078 -0.5078  0.1450  1.2267
 4138WAT     H212817   6.757   0.177   0.193  0.5797  1.6509  1.1062
 4139WAT      O12818   6.805   4.046   0.704 -0.0425  0.1115  0.6672
 4139WAT     H112819   6.879   4.108   0.703 -0.7010  0.9711 -1.8552
 4139WAT     H212820   6.755   4.070   0.781 -0.9311  3.6681 -0.8200
 4140WAT      O12821   2.686   6.002   3.267 -0.1975  0.2119 -0.5343
 4140WAT     H112822   2.632   5.943   3.320 -0.0054  0.8065  0.3291
 4140WAT     H212823   2.723   6.064   3.329  0.9132  0.2566 -1.2175
 4141WAT      O12824   5.923   1.328   5.458 -0.0661 -0.2879 -0.0546
 4141WAT     H112825   6.001   1.274   5.470  0.1726  0.1297  0.2547
 4141WAT     H212826   5.869   1.310   5.535  0.6612  1.0139  0.7799
 4142WAT      O12827   0.278   1.408   1.632 -0.6328  0.1286  0.1602
 4142WAT     H112828   0.243   1.470   1.695 -2.8398 -0.4939 -0.3800
 4142WAT     H212829   0.318   1.339   1.685 -1.2793  0.2761  0.8534
 4143WAT      O12830   6.271   5.766   3.703 -0.0685 -0.4075  0.5141
 4143WAT     H112831   6.177   5.760   3.689 -1.1215  4.6718  3.0969
 4143WAT     H212832   6.292   5.688   3.755 -3.1464 -0.9125  1.1902
 4144WAT      O12833   0.425   4.375   6.015  0.1776 -0.5554 -0.1055
 4144WAT     H112834   0.430   4.402   6.106  0.9889  0.2075 -0.3653
 4144WAT     H212835   0.344   4.323   6.010 -0.4842  0.3438  0.7988
 4145WAT      O12836   0.087   5.318   4.146  0.1460  0.3770  0.4666
 4145WAT     H112837   0.074   5.384   4.077  1.4938  2.1585  1.8249
 4145WAT     H212838   0.006   5.267   4.145 -0.1078  0.7000 -2.0302
 4146WAT      O12839   0.307   5.254   3.693  0.0238 -0.4195  0.0717
 4146WAT     H112840   0.380   5.274   3.751  0.8531 -0.5178 -0.9054
 4146WAT     H212841   0.232   5.298   3.732  1.4235  3.4497 -1.1785
 4147WAT      O12842   5.360   3.290   6.181  0.0648 -0.2922 -0.0035
 4147WAT     H112843   5.432   3.353   6.191 -0.1277  0.1618 -1.2974
 4147WAT     H212844   5.404   3.207   6.161  0.2357  0.0091 -0.9126
 4148WAT      O12845   1.836   1.824   6.089 -0.0166 -0.0141 -0.4879
 4148WAT     H112846   1.855   1.915   6.110 -3.9666  0.4929  1.8348
 4148WAT     H212847   1.826   1.781   6.174  0.1424 -2.2578 -1.5213
 4149WAT      O12848   2.187   4.181   4.537 -0.3193  0.2454  0.3409
 4149WAT     H112849   2.135   4.248   4.493 -0.1584  2.0138  2.6859
 4149WAT     H212850   2.148   4.173   4.624 -0.0550 -2.4552  0.3068
 4150WAT      O12851   4.544   4.726   3.479  0.8034 -0.3380 -0.0257
 4150WAT     H112852   4.597   4.654   3.444  1.3217 -0.5364  1.0970
 4150WAT     H212853   4.535   4.705   3.572 -1.1490 -0.2330 -0.1500
 4151WAT      O12854   0.752   3.257   3.519 -0.0647 -0.3661  0.9182
 4151WAT     H112855   0.664   3.226   3.497  0.2329 -1.2000  0.8927
 4151WAT     H212856   0.755   3.255   3.614  0.0893 -0.7991  0.9052
 4152WAT      O12857   2.662   2.383   0.046 -0.5789  0.7140 -0.4044
 4152WAT     H112858   2.746   2.397   0.089  0.2048 -1.7712 -0.9946
 4152WAT     H212859   2.649   2.461  -0.008 -0.6825  3.0647  2.6822
 4153WAT      O12860   3.618   4.936   5.970 -0.1644  0.2870 -0.3288
 4153WAT     H112861   3.567   4.995   6.025  0.4978  0.5942 -0.0230
 4153WAT     H212862   3.705   4.978   5.965  0.7821 -1.3812  1.0946
 4154WAT      O12863   0.025   6.727   1.850 -0.3477  0.1460  0.3915
 4154WAT     H112864  -0.038   6.754   1.917 -0.8201  0.1765 -0.0533
 4154WAT     H212865   0.040   6.634   1.867  0.3449  0.3974  1.1813
 4155WAT      O12866   5.284   1.620   2.015 -0.2094 -0.1582  0.3030
 4155WAT     H112867   5.321   1.535   1.994 -0.4568 -0.0644 -0.5667
 4155WAT     H212868   5.190   1.608   2.009 -0.2301  0.3264 -0.4716
 4156WAT      O12869   7.366   6.387   5.582 -0.3596 -0.2821 -0.1741
 4156WAT     H112870   7.304   6.452   5.614 -0.4485 -0.4192 -0.0672
 4156WAT     H212871   7.340   6.305   5.626  0.3051 -0.1991  0.3772
 4157WAT      O12872   2.675   6.845   1.138 -0.4285  0.3407  0.1598
 4157WAT     H112873   2.669   6.880   1.049  1.0463  0.1888 -0.0094
 4157WAT     H212874   2.701   6.919   1.191 -2.2669  0.6771  0.6718
 4158WAT      O12875   5.755   1.662   1.585 -0.0508  0.4040  0.5118
 4158WAT     H112876   5.762   1.674   1.679 -3.2237  1.0879  0.7657
 4158WAT     H212877   5.712   1.577   1.574  2.4947 -0.8571 -0.4913
 4159WAT      O12878   1.530   5.680   3.718 -0.0896  0.0523  0.2132
 4159WAT     H112879   1.568   5.758   3.758 -1.5153  1.2941 -0.7562
 4159WAT     H212880   1.513   5.621   3.792 -0.6604  1.4021  1.2004
 4160WAT      O12881   1.204   3.504   1.612 -0.5697 -0.7113  0.1575
 4160WAT     H112882   1.205   3.566   1.539  1.1904 -1.3100 -0.3655
 4160WAT     H212883   1.145   3.434   1.583 -0.3323 -0.6645 -0.4499
 4161WAT      O12884   0.776   6.541   1.720  0.2480 -0.2221 -0.1183
 4161WAT     H112885   0.739   6.462   1.681 -2.8177  0.8095  0.4015
 4161WAT     H212886   0.753   6.535   1.813  0.4340  1.0283  0.0249
 4162WAT      O12887   6.587   3.688   1.995 -0.3208  0.0655  0.3000
 4162WAT     H112888   6.646   3.624   2.034 -0.3867 -0.2919 -0.1725
 4162WAT     H212889   6.616   3.694   1.904 -0.4014  0.6104  0.3102
 4163WAT      O12890   6.742   0.077   1.690 -0.1478  0.1525 -0.2640
 4163WAT     H112891   6.718   0.130   1.613  0.8635 -2.3448 -2.4424
 4163WAT     H212892   6.670   0.015   1.699  1.0209 -1.3640 -1.0127
 4164WAT      O12893   5.476   1.230   3.856  0.0883  0.2784  0.0187
 4164WAT     H112894   5.439   1.144   3.875  1.2259 -0.0319  0.8991
 4164WAT     H212895   5.561   1.230   3.899  0.1166  1.8406  0.0237
 4165WAT      O12896   5.000   1.775   4.019  0.7275 -0.1858  0.1703
 4165WAT     H112897   4.942   1.700   4.012 -1.0385  1.1512 -0.3268
 4165WAT     H212898   5.023   1.797   3.929  1.9121 -0.6107  0.3542
 4166WAT      O12899   5.676   4.434   3.392 -0.1123  0.4460  0.4561
 4166WAT     H112900   5.766   4.464   3.406  0.8136 -1.8468 -0.0399
 4166WAT     H212901   5.644   4.411   3.479 -0.0885  0.9489  0.5961
 4167WAT      O12902   3.761   2.278   4.584  0.1784  0.0967  0.4976
 4167WAT     H112903   3.830   2.326   4.629  0.5559 -0.8352  0.9394
 4167WAT     H212904   3.685   2.336   4.588  0.8869  1.0907  0.1038
 4168WAT      O12905   7.557   2.464   0.891 -0.0978 -0.1753 -0.3798
 4168WAT     H112906   7.583   2.503   0.975  0.0143 -0.0285 -0.4835
 4168WAT     H212907   7.497   2.393   0.916 -0.1309 -0.0791 -0.1794
 4169WAT      O12908   5.633   5.165   3.528 -0.0553  0.5458  0.0788
 4169WAT     H112909   5.720   5.126   3.522 -0.5443 -0.5903  0.1328
 4169WAT     H212910   5.595   5.129   3.608 -1.6683 -1.3595 -1.4269
 4170WAT      O12911   0.492   1.483   4.480 -0.3753  0.0570  0.3679
 4170WAT     H112912   0.431   1.521   4.544  0.6517  0.3373  1.2018
 4170WAT     H212913   0.531   1.408   4.525 -0.2073 -0.2210 -0.2218
 4171WAT      O12914   1.262   4.438   3.160 -0.0387  0.5409 -0.1748
 4171WAT     H112915   1.277   4.345   3.141  0.2960  0.4957  0.2720
 4171WAT     H212916   1.227   4.474   3.079 -1.9875 -0.3678  0.2069
 4172WAT      O12917   1.774   5.487   6.097 -0.2221  0.2993 -0.1205
 4172WAT     H112918   1.704   5.481   6.162  1.0453  0.8611  1.3847
 4172WAT     H212919   1.850   5.447   6.140  1.1444  2.3484 -0.4691
 4173WAT      O12920   3.256   2.170   3.984  0.0572 -0.2756 -0.0360
 4173WAT     H112921   3.342   2.143   3.950 -0.5657 -0.7057 -1.3430
 4173WAT     H212922   3.271   2.256   4.022  0.9480 -0.0645 -0.8257
 4174WAT      O12923   6.939   0.172   3.811 -0.2406 -0.4666  0.0554
 4174WAT     H112924   6.892   0.154   3.893 -0.6546 -0.7600 -0.2413
 4174WAT     H212925   7.025   0.204   3.839  0.0728 -1.7484  0.5969
 4175WAT      O12926   1.931   3.798   5.636  0.3695 -0.0159 -0.1770
 4175WAT     H112927   1.904   3.886   5.661  2.3061  1.1958 -1.9868
 4175WAT     H212928   1.982   3.767   5.710 -0.5866  0.2357  0.6065
 4176WAT      O12929   2.177   3.673   3.911 -0.8184 -0.3235 -0.4436
 4176WAT     H112930   2.220   3.631   3.986  1.5942  1.6093 -0.6233
 4176WAT     H212931   2.128   3.745   3.949  1.7410  1.6993 -0.7132
 4177WAT      O12932   1.604   5.342   3.506  0.2382 -0.0457 -0.3072
 4177WAT     H112933   1.685   5.336   3.557 -0.4589  0.1252  0.8546
 4177WAT     H212934   1.537   5.305   3.564 -1.0659  2.5805 -0.0242
 4178WAT      O12935   5.161   2.308   1.374  0.3679 -0.3625  0.0651
 4178WAT     H112936   5.218   2.376   1.409  0.6147 -0.4624 -0.1376
 4178WAT     H212937   5.126   2.264   1.451  1.5746 -1.1404  0.2093
 4179WAT      O12938   1.219   1.744   5.225  0.6116  0.6089  0.3371
 4179WAT     H112939   1.127   1.757   5.247  0.3860  0.8791 -0.7111
 4179WAT     H212940   1.266   1.795   5.291 -0.0200  0.9798  0.5140
 4180WAT      O12941   6.209   3.049   0.119  1.0266 -0.0134 -0.7738
 4180WAT     H112942   6.195   3.131   0.167  1.7492  0.1086 -0.7573
 4180WAT     H212943   6.296   3.059   0.079  1.0225 -0.6741 -0.9646
 4181WAT      O12944   1.455   1.805   2.515 -0.2135  0.5099  0.4269
 4181WAT     H112945   1.373   1.820   2.468  0.0822  0.9000  0.0178
 4181WAT     H212946   1.520   1.853   2.464  0.6476 -1.4591 -0.4255
 4182WAT      O12947   0.356   3.397   2.327  0.5229 -0.1369 -0.4388
 4182WAT     H112948   0.436   3.344   2.319  1.7346  1.4779  0.2852
 4182WAT     H212949   0.342   3.406   2.421 -0.6388 -0.5418 -0.5607
 4183WAT      O12950   6.013   4.955   0.147 -0.2378  1.0804 -0.1036
 4183WAT     H112951   5.960   5.024   0.188  1.2965  1.5516  1.1707
 4183WAT     H212952   6.068   5.001   0.084  0.5798  1.0180  0.5423
 4184WAT      O12953   5.502   2.460   3.887 -0.0802  0.0429 -0.0340
 4184WAT     H112954   5.454   2.384   3.917 -0.6993  0.7489  0.8246
 4184WAT     H212955   5.451   2.535   3.918  1.3604  0.8098  0.5729
 4185WAT      O12956   1.586   4.214   0.340  0.5218  0.4633 -0.0897
 4185WAT     H112957   1.675   4.210   0.375  0.1425  0.9101  0.9794
 4185WAT     H212958   1.561   4.123   0.329  1.1548  0.3340 -0.5260
 4186WAT      O12959   4.974   6.318   5.562 -0.0106 -0.0780 -0.1697
 4186WAT     H112960   4.961   6.223   5.563 -0.2752 -0.0891  2.7046
 4186WAT     H212961   4.902   6.353   5.615  0.4495  1.6718 -0.6415
 4187WAT      O12962   0.287   3.289   4.360 -0.1998  0.5494  0.0437
 4187WAT     H112963   0.350   3.358   4.340  0.1860 -0.1649 -1.3224
 4187WAT     H212964   0.202   3.327   4.337 -0.0270  0.7117 -0.3396
 4188WAT      O12965   1.684   5.042   4.002 -0.1998  0.4599  0.3291
 4188WAT     H112966   1.646   4.990   4.074  1.1644 -0.7217  0.2307
 4188WAT     H212967   1.752   4.986   3.966 -0.3273  1.3676 -1.3943
 4189WAT      O12968   4.200   6.022   5.012 -0.5221 -0.1292 -0.4399
 4189WAT     H112969   4.162   5.988   5.094  1.1116 -1.0718 -0.0295
 4189WAT     H212970   4.126   6.062   4.966 -1.6160 -0.1990  1.1787
 4190WAT      O12971   0.611   6.792   5.769 -0.0686 -0.0249 -0.1362
 4190WAT     H112972   0.563   6.723   5.724 -1.2376 -0.7302  2.0190
 4190WAT     H212973   0.561   6.872   5.753  0.1107 -0.0610 -0.9016
 4191WAT      O12974   4.391   3.932   3.630  0.3639  0.3820 -0.5627
 4191WAT     H112975   4.377   3.857   3.573  0.3350  0.5754 -0.8083
 4191WAT     H212976   4.327   3.997   3.601 -0.3262  0.1259  0.3207
 4192WAT      O12977   5.494   4.765   3.083  0.3838 -0.2749  0.1906
 4192WAT     H112978   5.434   4.831   3.118  0.4116 -0.4790  0.6368
 4192WAT     H212979   5.574   4.774   3.136  1.0066  0.4514 -0.8435
 4193WAT      O12980   6.774   1.003   5.664  0.6025 -0.1361  0.0207
 4193WAT     H112981   6.859   0.985   5.705  1.1279  1.1297 -0.4536
 4193WAT     H212982   6.762   0.931   5.602  2.9329  1.2577 -2.2939
 4194WAT      O12983   4.377   1.784   3.017 -0.2556  0.6502 -0.0921
 4194WAT     H112984   4.449   1.723   3.000 -1.1161 -0.5428  0.3589
 4194WAT     H212985   4.381   1.846   2.944  0.2494 -0.3449 -0.9439
 4195WAT      O12986   5.643   4.095   1.324  0.1388  0.4232 -0.1329
 4195WAT     H112987   5.616   4.012   1.363 -1.8995  1.3440  0.5240
 4195WAT     H212988   5.733   4.079   1.294  0.7569 -1.1922  2.3294
 4196WAT      O12989   5.432   3.316   1.704 -0.0135 -0.3290 -0.0866
 4196WAT     H112990   5.382   3.397   1.713 -1.7173 -1.3875  0.3745
 4196WAT     H212991   5.386   3.266   1.637 -0.0191 -1.6280  0.8336
 4197WAT      O12992   3.342   4.584   1.068  0.0055  0.0948 -0.3895
 4197WAT     H112993   3.301   4.517   1.013  0.2738 -1.2799  1.0056
 4197WAT     H212994   3.283   4.593   1.143  0.8056  0.1783  0.2502
 4198WAT      O12995   2.826   1.743   1.801  0.2697  0.1604 -0.2605
 4198WAT     H112996   2.773   1.764   1.724  0.5271  1.3761 -0.1240
 4198WAT     H212997   2.800   1.808   1.866 -0.6129 -1.3965  1.0246
 4199WAT      O12998   6.241   6.294   5.143  0.9035 -0.0531  0.0126
 4199WAT     H112999   6.157   6.252   5.123  0.6440  0.9786 -1.1943
 4199WAT     H213000   6.223   6.347   5.220  1.1739 -1.8926  1.4096
 4200WAT      O13001   2.329   1.628   5.846 -1.0434 -1.4623  0.3861
 4200WAT     H113002   2.274   1.693   5.802  0.8887 -1.2224 -1.9176
 4200WAT     H213003   2.368   1.676   5.919 -0.7371 -0.4142 -0.4393
 4201WAT      O13004   1.260   0.483   2.559  0.0604 -0.0767  1.0094
 4201WAT     H113005   1.175   0.501   2.598 -1.0496 -0.5849 -1.0235
 4201WAT     H213006   1.323   0.525   2.617 -1.7066  1.7972  1.6685
 4202WAT      O13007   0.988   4.635   5.841 -0.4502 -0.2898  0.2417
 4202WAT     H113008   0.903   4.667   5.871  0.2234  1.2542  0.6194
 4202WAT     H213009   0.978   4.540   5.836 -2.5045 -0.0726 -0.7252
 4203WAT      O13010   1.805   4.503   5.200  0.7494  0.3394  0.3707
 4203WAT     H113011   1.849   4.440   5.142 -0.1335  0.0372  0.0218
 4203WAT     H213012   1.862   4.580   5.199  0.2278  0.7631 -1.7893
 4204WAT      O13013   6.656   1.317   5.897 -0.0734 -0.8367  0.2333
 4204WAT     H113014   6.628   1.407   5.917 -0.8396 -0.6094 -1.6495
 4204WAT     H213015   6.588   1.262   5.935 -0.2125 -0.5649  0.3832
 4205WAT      O13016   0.311   2.864   0.503  0.0217  0.3933 -0.5239
 4205WAT     H113017   0.391   2.820   0.473 -0.3418 -0.6587 -0.0051
 4205WAT     H213018   0.342   2.941   0.550  0.6729  0.7969 -1.5951
 4206WAT      O13019   5.464   5.050   0.880 -0.0133 -0.6132  0.3011
 4206WAT     H113020   5.429   5.067   0.968  0.5251 -2.5307  0.9345
 4206WAT     H213021   5.465   4.955   0.873  0.9055 -0.5093 -1.4200
 4207WAT      O13022   7.324   4.702   5.265 -0.1221 -0.1209 -0.2609
 4207WAT     H113023   7.363   4.698   5.352 -1.0598 -2.0730  0.1408
 4207WAT     H213024   7.253   4.766   5.274 -0.0196 -0.0807  0.3373
 4208WAT      O13025   1.293   0.275   1.447  0.0920 -0.0709  0.2685
 4208WAT     H113026   1.375   0.234   1.419 -0.7050 -1.6910  0.2188
 4208WAT     H213027   1.258   0.216   1.513 -1.1607  0.4718  0.1095
 4209WAT      O13028   0.114   5.456   3.782 -0.2306  0.0571  0.3578
 4209WAT     H113029   0.161   5.514   3.842 -0.4167  0.1764  0.3883
 4209WAT     H213030   0.041   5.508   3.750 -0.7468 -0.3498  0.8505
 4210WAT      O13031   0.793   1.235   0.740  0.5200 -0.1406 -1.1818
 4210WAT     H113032   0.870   1.187   0.710  0.0635 -0.2427 -2.2071
 4210WAT     H213033   0.745   1.257   0.661  0.8730  2.3340 -0.7997
 4211WAT      O13034   2.906   0.149   4.965  0.2874 -0.6908 -0.0654
 4211WAT     H113035   2.909   0.094   5.043  0.0928 -1.6634 -0.7341
 4211WAT     H213036   2.997   0.169   4.946  0.4108 -1.4698 -0.2992
 4212WAT      O13037   4.722   3.945   2.864 -0.3467  0.3673 -0.3915
 4212WAT     H113038   4.777   3.983   2.933 -1.7829 -1.5959  2.0087
 4212WAT     H213039   4.785   3.904   2.804  1.0111  3.1201 -1.0080
 4213WAT      O13040   6.637   3.455   2.660 -0.3179 -0.4312  0.2178
 4213WAT     H113041   6.701   3.385   2.672 -0.8167 -0.6267  2.2112
 4213WAT     H213042   6.608   3.475   2.749 -1.1938  1.3733 -0.4381
 4214WAT      O13043   4.759   0.197   2.378 -0.1571 -0.0756 -0.2934
 4214WAT     H113044   4.713   0.170   2.457  0.3743  0.9321  0.3813
 4214WAT     H213045   4.817   0.268   2.407  1.1248 -0.6763 -1.3021
 4215WAT      O13046   3.140   5.143   2.805  0.0649  0.3110  0.4352
 4215WAT     H113047   3.132   5.056   2.766 -0.9864 -0.0484  1.3898
 4215WAT     H213048   3.216   5.137   2.863  0.1931  0.1390  0.2510
 4216WAT      O13049   5.443   0.435   3.950 -0.0473  0.3076  0.0850
 4216WAT     H113050   5.425   0.528   3.962  0.5662  0.7645 -1.9949
 4216WAT     H213051   5.357   0.394   3.945 -0.5815  1.4801 -3.2049
 4217WAT      O13052   7.177   5.554   1.976  0.0388 -0.9588  0.4902
 4217WAT     H113053   7.113   5.580   1.910  1.7169 -2.2815 -1.8123
 4217WAT     H213054   7.132   5.488   2.028 -0.0846 -3.2304 -2.2234
 4218WAT      O13055   0.337   1.679   0.870  0.5590 -0.1125 -0.2931
 4218WAT     H113056   0.351   1.610   0.935  0.4225  1.2332  1.2272
 4218WAT     H213057   0.242   1.693   0.871  0.5737  0.0144 -0.6791
 4219WAT      O13058   6.440   1.899   2.734  0.2430 -0.0035  0.1439
 4219WAT     H113059   6.474   1.981   2.771 -0.4816 -0.1953  1.2956
 4219WAT     H213060   6.506   1.834   2.757  0.8691  0.2577 -0.8593
 4220WAT      O13061   3.765   6.825   5.528 -0.0717 -0.4771 -0.0123
 4220WAT     H113062   3.835   6.770   5.563  0.4446  0.1469 -0.0422
 4220WAT     H213063   3.801   6.914   5.531 -0.6742 -0.2129 -0.5055
 4221WAT      O13064   2.592   5.767   6.063  0.1388  0.1164  0.3609
 4221WAT     H113065   2.643   5.814   6.129 -0.8265  0.6660  0.7330
 4221WAT     H213066   2.634   5.791   5.980  1.0924 -0.2365  0.7202
 4222WAT      O13067   2.621   6.639   2.966  0.3458  0.1502 -0.4124
 4222WAT     H113068   2.688   6.582   3.004 -0.0298  0.4726  0.7641
 4222WAT     H213069   2.651   6.654   2.876  1.4491 -0.3357 -0.1443
 4223WAT      O13070   1.302   0.328   0.761 -0.2618 -0.0544  0.3976
 4223WAT     H113071   1.247   0.285   0.826  1.2387  1.0974  2.5589
 4223WAT     H213072   1.386   0.283   0.766 -0.2754 -0.3533 -1.2712
 4224WAT      O13073   6.696   0.084   0.359 -0.6416 -0.1777 -0.3991
 4224WAT     H113074   6.730   0.036   0.435 -0.1492 -0.0235 -0.5185
 4224WAT     H213075   6.607   0.051   0.348 -0.7180 -0.1997  0.2450
 4225WAT      O13076   7.246   2.439   5.625 -0.2168  0.1133 -0.3729
 4225WAT     H113077   7.163   2.391   5.631  0.2070 -0.6223 -0.3179
 4225WAT     H213078   7.290   2.421   5.707  0.7890 -0.9911 -1.1290
 4226WAT      O13079   6.068   3.836   5.855  0.5916  0.5387 -0.4063
 4226WAT     H113080   5.993   3.880   5.895  0.0217 -1.0044  0.2926
 4226WAT     H213081   6.133   3.833   5.926  1.6181  2.4189 -1.1796
 4227WAT      O13082   6.112   4.143   0.068  0.3573 -0.3271  1.1673
 4227WAT     H113083   6.026   4.143   0.109 -0.0516  0.4964  0.3456
 4227WAT     H213084   6.123   4.232   0.034  1.8372 -0.2110  1.8638
 4228WAT      O13085   1.352   5.830   5.641 -0.2096 -0.4589  0.3252
 4228WAT     H113086   1.416   5.887   5.684 -0.7746  1.4678 -1.2263
 4228WAT     H213087   1.276   5.831   5.699  0.4080 -1.0974  1.1682
 4229WAT      O13088   2.055   5.755   4.881 -0.5270  0.3534  0.1355
 4229WAT     H113089   2.123   5.815   4.911 -0.1056  0.0181 -0.1412
 4229WAT     H213090   2.011   5.727   4.961 -1.1034  1.4495  0.2362
 4230WAT      O13091   2.914   0.493   1.406 -0.6143  0.0514 -0.8093
 4230WAT     H113092   2.862   0.424   1.448 -1.6773  0.4948 -1.3843
 4230WAT     H213093   2.986   0.509   1.468  0.6940 -2.7829 -1.4152
 4231WAT      O13094   2.859   4.825   5.579 -0.2879 -0.3204 -0.0331
 4231WAT     H113095   2.833   4.864   5.663  0.1269 -1.6500  0.7520
 4231WAT     H213096   2.936   4.876   5.552  0.1588 -0.4654  0.8962
 4232WAT      O13097   2.815   2.287   4.257 -0.1614  0.0731 -0.3692
 4232WAT     H113098   2.853   2.216   4.206  1.9174 -0.2126  1.4443
 4232WAT     H213099   2.755   2.243   4.318  0.0316  0.0275 -0.2116
 4233WAT      O13100   2.077   0.184   3.176  0.9528 -0.2983  0.2347
 4233WAT     H113101   2.125   0.124   3.118  0.6705 -0.5481  0.2527
 4233WAT     H213102   2.052   0.129   3.251  0.8361 -0.1158  0.3295
 4234WAT      O13103   1.042   6.947   3.460  1.1731 -0.3659 -0.1184
 4234WAT     H113104   0.966   6.910   3.505  0.8720  0.6368  0.2238
 4234WAT     H213105   1.089   6.995   3.528  0.8853  0.9066 -0.7922
 4235WAT      O13106   6.516   0.425   2.835 -0.2809 -0.4120  0.1407
 4235WAT     H113107   6.536   0.332   2.833 -0.5123 -0.5524  2.0851
 4235WAT     H213108   6.550   0.455   2.919 -1.4836  0.9377  0.1867
 4236WAT      O13109   4.667   5.506   4.020 -0.2108 -0.2577  0.0283
 4236WAT     H113110   4.751   5.516   4.064  0.2250 -0.1715 -0.8221
 4236WAT     H213111   4.603   5.511   4.092  0.4606  0.2870  0.6138
 4237WAT      O13112   6.353   3.528   1.225 -0.2913 -0.2137 -0.2580
 4237WAT     H113113   6.349   3.599   1.290  2.2225  1.0241 -1.3294
 4237WAT     H213114   6.290   3.554   1.158 -0.2353  0.4125 -0.0757
 4238WAT      O13115   7.206   2.732   4.452  0.1235 -0.3026  0.3073
 4238WAT     H113116   7.260   2.669   4.500 -2.3879 -1.5330  1.8065
 4238WAT     H213117   7.164   2.784   4.521  1.9853  3.0228 -0.8909
 4239WAT      O13118   7.272   0.498   2.675 -0.0772  0.7807  0.2155
 4239WAT     H113119   7.346   0.505   2.735 -0.6527  1.0803  0.9114
 4239WAT     H213120   7.293   0.423   2.619 -1.0084 -1.7576  2.9945
 4240WAT      O13121   6.048   0.323   4.487 -0.5573  0.3881  0.4328
 4240WAT     H113122   5.979   0.343   4.550 -0.3136 -2.0125  1.5739
 4240WAT     H213123   6.129   0.342   4.535 -0.3502  2.2569 -0.5658
 4241WAT      O13124   1.181   4.738   6.044 -0.1230  0.0791 -0.2068
 4241WAT     H113125   1.195   4.663   6.101  0.0430  0.5744  0.4084
 4241WAT     H213126   1.122   4.706   5.976 -0.0103 -0.6185  0.0214
 4242WAT      O13127   3.455   1.655   4.819  0.3849  0.1053  0.0523
 4242WAT     H113128   3.442   1.736   4.868 -2.0757  0.1589 -0.5358
 4242WAT     H213129   3.549   1.650   4.804  0.7071  2.2895  1.0244
 4243WAT      O13130   3.587   6.650   1.161  0.0766  0.5260  0.3418
 4243WAT     H113131   3.520   6.684   1.220  0.4912 -1.3965  2.0294
 4243WAT     H213132   3.538   6.621   1.083 -0.8973  0.3289  1.0091
 4244WAT      O13133   3.519   0.857   5.406 -0.3356  0.2317 -0.3342
 4244WAT     H113134   3.556   0.788   5.350  1.6912  1.6606 -0.8536
 4244WAT     H213135   3.539   0.938   5.360 -1.7710  1.2421  0.7697
 4245WAT      O13136   6.324   6.274   0.500 -0.7859 -0.0659 -0.3651
 4245WAT     H113137   6.263   6.327   0.448 -0.5355 -0.2025 -0.7976
 4245WAT     H213138   6.358   6.335   0.566  0.7316  0.7606 -1.8602
 4246WAT      O13139   5.921   2.083   2.529  0.2508  0.4829 -0.7435
 4246WAT     H113140   5.918   2.021   2.602 -0.2759  3.4063  1.9302
 4246WAT     H213141   5.976   2.040   2.463  1.2557 -2.1063  1.6006
 4247WAT      O13142   2.264   4.751   0.959  0.0545  0.2759 -0.0981
 4247WAT     H113143   2.347   4.745   1.007 -1.8622 -3.0597  3.3351
 4247WAT     H213144   2.259   4.842   0.930  3.7994  1.2020  1.5588
 4248WAT      O13145   0.937   5.374   0.156  0.0094  0.2126 -0.4297
 4248WAT     H113146   0.864   5.431   0.178 -0.5206 -0.7917  0.4707
 4248WAT     H213147   0.960   5.330   0.237  1.1121 -0.0724 -0.8699
 4249WAT      O13148   4.770   2.201   1.615  0.0950 -0.0470  0.4855
 4249WAT     H113149   4.758   2.222   1.708  1.3703  0.8456  0.4815
 4249WAT     H213150   4.765   2.105   1.612 -0.2663 -0.0716  1.4295
 4250WAT      O13151   1.583   6.500   0.437  0.2561 -0.0834 -0.0248
 4250WAT     H113152   1.610   6.409   0.454 -1.4189 -0.5848  0.1390
 4250WAT     H213153   1.599   6.545   0.520 -1.0860 -0.8029  0.6568
 4251WAT      O13154   4.632   4.970   3.386  0.1044 -0.0718  0.0110
 4251WAT     H113155   4.565   4.902   3.396  0.4570 -0.1206  2.5195
 4251WAT     H213156   4.713   4.922   3.368  0.0220 -0.2108  0.0113
 4252WAT      O13157   7.208   4.372   6.157  0.2030  0.8302 -0.5110
 4252WAT     H113158   7.238   4.383   6.067  0.6178  3.0381 -0.1525
 4252WAT     H213159   7.260   4.298   6.191  0.4772  0.3749 -1.8632
 4253WAT      O13160   2.727   5.360   4.354 -0.3648 -0.1572  0.0131
 4253WAT     H113161   2.819   5.351   4.329 -0.0593  0.2021  0.9552
 4253WAT     H213162   2.698   5.439   4.309  0.0084  0.1568  0.3186
 4254WAT      O13163   2.383   5.316   5.215  0.3235 -0.6995 -0.1171
 4254WAT     H113164   2.433   5.312   5.297  2.3401 -0.1291 -1.2743
 4254WAT     H213165   2.359   5.225   5.197  1.2346 -1.0305  0.2935
 4255WAT      O13166   4.533   5.904   2.242  0.0369  0.0529 -0.1635
 4255WAT     H113167   4.526   5.822   2.193 -1.0717 -0.4771  0.8231
 4255WAT     H213168   4.448   5.946   2.230 -0.1162  0.0920  0.9814
 4256WAT      O13169   2.675   2.383   5.515  0.2150  0.0238  0.2314
 4256WAT     H113170   2.762   2.386   5.475 -0.6446 -1.9052 -2.0663
 4256WAT     H213171   2.672   2.300   5.561 -0.6824 -0.3661 -0.4894
 4257WAT      O13172   0.665   4.872   2.838 -0.5235 -0.1665  0.5767
 4257WAT     H113173   0.682   4.778   2.835 -0.7182 -0.3679  3.2243
 4257WAT     H213174   0.747   4.910   2.870  0.2992  0.9035 -2.5140
 4258WAT      O13175   4.639   6.630   2.480  0.3667  0.0080  0.6144
 4258WAT     H113176   4.713   6.577   2.450  0.2545  0.5270 -0.6399
 4258WAT     H213177   4.674   6.681   2.553  1.0780 -0.1992  0.4263
 4259WAT      O13178   2.551   0.290   2.034  0.6095  0.0485 -0.3563
 4259WAT     H113179   2.518   0.223   1.974  0.3093 -0.1928  0.0759
 4259WAT     H213180   2.556   0.369   1.980 -1.5403  0.3304 -0.2455
 4260WAT      O13181   5.549   3.192   2.931  0.1525  0.3791  0.5116
 4260WAT     H113182   5.495   3.140   2.991  0.0766  1.7177  1.6550
 4260WAT     H213183   5.638   3.158   2.943 -0.0951 -0.4098  0.1947
 4261WAT      O13184   7.032   4.736   1.355 -0.0724 -0.1513 -0.1593
 4261WAT     H113185   6.969   4.791   1.402 -0.1959  0.4170 -0.9789
 4261WAT     H213186   6.981   4.660   1.328 -0.0758 -0.3341  0.3503
 4262WAT      O13187   2.605   5.593   1.499  0.0746 -0.0337  0.2315
 4262WAT     H113188   2.554   5.673   1.489 -1.7662 -1.1056  0.5067
 4262WAT     H213189   2.619   5.585   1.593 -1.1088 -0.8028  0.3611
 4263WAT      O13190   4.558   4.956   1.081 -0.3284 -0.3703 -0.0921
 4263WAT     H113191   4.492   4.922   1.140  0.0998  0.5672  0.9664
 4263WAT     H213192   4.536   5.049   1.071 -0.8654 -0.6587 -2.0795
 4264WAT      O13193   4.496   4.912   1.482  0.3993 -0.0815 -0.0854
 4264WAT     H113194   4.496   5.007   1.481  0.3741 -0.0816 -0.0858
 4264WAT     H213195   4.588   4.888   1.497  0.3056 -0.0519  0.5406
 4265WAT      O13196   3.637   5.639   4.027 -0.8092  0.3818 -0.7058
 4265WAT     H113197   3.706   5.600   4.081 -1.4487 -1.5484 -1.1922
 4265WAT     H213198   3.628   5.728   4.059 -0.7812 -0.5227  2.0170
 4266WAT      O13199   1.905   4.606   2.376  0.0775 -0.2900 -0.1581
 4266WAT     H113200   1.906   4.517   2.411  0.7536 -0.1493  0.1875
 4266WAT     H213201   1.909   4.663   2.453 -0.7841  0.0583 -0.3499
 4267WAT      O13202   3.549   6.497   2.633  0.0785 -0.3558 -0.4102
 4267WAT     H113203   3.593   6.571   2.673  2.2349 -1.2659 -0.9661
 4267WAT     H213204   3.501   6.456   2.705 -0.9984  1.4025 -0.0647
 4268WAT      O13205   3.476   0.650   4.070  0.2668 -0.2747  0.4919
 4268WAT     H113206   3.406   0.615   4.125 -0.0665 -0.7968 -0.2497
 4268WAT     H213207   3.458   0.744   4.066 -2.5772 -0.7559 -2.5666
 4269WAT      O13208   0.886   1.809   6.050  0.5760 -0.3552 -0.5349
 4269WAT     H113209   0.817   1.757   6.093 -0.3631  0.9233 -0.4211
 4269WAT     H213210   0.964   1.754   6.056 -0.7125 -2.5163 -1.9643
 4270WAT      O13211   5.453   5.212   0.026 -0.3148 -0.1489  0.0010
 4270WAT     H113212   5.390   5.237  -0.042 -2.2509 -1.4411  1.1888
 4270WAT     H213213   5.420   5.254   0.106  0.8908 -0.0809  0.4802
 4271WAT      O13214   5.760   5.097   1.051 -0.3182  0.6565 -0.2604
 4271WAT     H113215   5.721   5.058   1.130  0.7547 -0.0968 -0.0814
 4271WAT     H213216   5.705   5.173   1.033 -0.9378  0.5079  0.8773
 4272WAT      O13217   6.818   4.340   4.270  0.2789  0.0329  0.6351
 4272WAT     H113218   6.871   4.300   4.339  0.0185 -0.0648  0.7790
 4272WAT     H213219   6.873   4.335   4.192  0.0835 -1.0235  0.5495
 4273WAT      O13220   3.875   4.733   5.263  0.0454  0.0833  0.1479
 4273WAT     H113221   3.834   4.655   5.300 -1.3708  1.2580  1.1459
 4273WAT     H213222   3.879   4.795   5.336  0.3483  1.2499 -0.8303
 4274WAT      O13223   3.883   5.021   5.917 -0.1042 -0.4141  0.3114
 4274WAT     H113224   3.864   5.047   5.827 -0.4516  0.1259  0.5370
 4274WAT     H213225   3.938   5.092   5.951 -0.2531 -0.4516  0.6317
 4275WAT      O13226   7.256   3.764   4.001 -0.0778 -0.1430  0.0347
 4275WAT     H113227   7.312   3.841   3.994  0.0979 -0.3128 -0.4379
 4275WAT     H213228   7.317   3.691   4.009 -0.2248 -0.1142  2.1948
 4276WAT      O13229   5.859   5.460   3.094 -0.5209  0.1291 -0.0943
 4276WAT     H113230   5.922   5.436   3.026  0.0112  2.8584 -0.6938
 4276WAT     H213231   5.903   5.441   3.177 -0.3515 -1.2714 -0.4840
 4277WAT      O13232   6.711   7.085   0.918 -0.3590 -0.0773 -0.3956
 4277WAT     H113233   6.701   7.101   1.012  0.2531 -0.0475 -0.3362
 4277WAT     H213234   6.794   7.039   0.910  1.0419  2.4024 -1.2015
 4278WAT      O13235   2.869   5.485   3.573 -0.5272  0.0344 -0.2771
 4278WAT     H113236   2.831   5.412   3.621 -2.6947  1.3951  0.2318
 4278WAT     H213237   2.901   5.447   3.492 -0.1451 -1.7004  0.6444
 4279WAT      O13238   6.589   5.797   1.790  0.4165 -0.2498  0.1059
 4279WAT     H113239   6.545   5.810   1.706 -0.1621  0.8489  0.5638
 4279WAT     H213240   6.521   5.764   1.848  0.3290  0.8356  0.6440
 4280WAT      O13241   2.782   4.318   1.040 -0.0677  0.0516 -0.3448
 4280WAT     H113242   2.746   4.335   1.127  0.6505 -0.2408  0.0162
 4280WAT     H213243   2.856   4.379   1.032 -0.7100  0.7606 -1.1426
 4281WAT      O13244   5.998   1.730   5.696 -0.1198  0.2229 -0.1402
 4281WAT     H113245   6.090   1.754   5.685 -0.6400  2.0140 -1.0158
 4281WAT     H213246   5.956   1.812   5.723 -1.4413 -0.5913  0.3165
 4282WAT      O13247   6.085   0.405   4.171  0.2213  0.1188 -0.2441
 4282WAT     H113248   6.123   0.393   4.258 -0.3869 -0.3037 -0.0290
 4282WAT     H213249   6.079   0.317   4.135 -0.5769  0.1715 -0.2569
 4283WAT      O13250   6.764   5.697   4.654 -0.3680 -0.1276 -0.2242
 4283WAT     H113251   6.735   5.754   4.726 -0.5035 -0.3139 -0.1279
 4283WAT     H213252   6.762   5.609   4.692  0.3392 -0.1437 -0.2167
 4284WAT      O13253   3.186   5.229   2.088  0.1359  0.0522  0.2545
 4284WAT     H113254   3.227   5.147   2.117 -0.1201 -0.4603 -0.7905
 4284WAT     H213255   3.164   5.275   2.169  0.5200 -0.7913  0.8504
 4285WAT      O13256   3.809   4.973   2.195 -0.3302  0.7133  0.0661
 4285WAT     H113257   3.800   4.908   2.125  1.0813 -0.8535  1.2506
 4285WAT     H213258   3.739   5.036   2.179 -1.2026 -0.6215 -1.6593
 4286WAT      O13259   2.382   1.642   2.227 -0.2980  0.2575 -0.3508
 4286WAT     H113260   2.329   1.666   2.303  1.0624 -0.2962  0.8087
 4286WAT     H213261   2.424   1.560   2.252  0.4846  0.2689 -1.5577
 4287WAT      O13262   0.421   3.455   0.258 -0.0754  0.1792  0.6181
 4287WAT     H113263   0.376   3.410   0.329 -0.3792 -1.2317 -0.4101
 4287WAT     H213264   0.366   3.531   0.239  0.3225  0.9171  2.2363
 4288WAT      O13265   1.234   3.759   2.373  0.1832 -0.4512 -0.2274
 4288WAT     H113266   1.282   3.730   2.451 -0.0520 -0.6903 -0.1698
 4288WAT     H213267   1.220   3.678   2.323  1.8526 -0.0931 -1.3768
 4289WAT      O13268   6.925   6.706   2.052  0.1602 -0.1215  0.4306
 4289WAT     H113269   6.960   6.774   2.111  1.3952 -0.4701  0.1288
 4289WAT     H213270   6.909   6.752   1.970 -0.8444  0.2003  0.7840
 4290WAT      O13271   6.100   0.254   1.914  0.2113 -0.0233  0.5478
 4290WAT     H113272   6.181   0.275   1.960  0.5897 -0.5180  0.1107
 4290WAT     H213273   6.128   0.212   1.832 -0.4544  0.7015 -0.0708
 4291WAT      O13274   1.546   0.578   1.359 -0.0869 -0.0488 -0.1718
 4291WAT     H113275   1.531   0.558   1.266  0.1142 -1.0288 -0.0009
 4291WAT     H213276   1.461   0.609   1.390 -0.0476  0.7125 -0.7806
 4292WAT      O13277   3.582   6.048   6.068  0.0709 -0.6555 -0.3036
 4292WAT     H113278   3.644   6.030   6.139  1.2756  3.2110 -0.1542
 4292WAT     H213279   3.507   6.088   6.111  0.5571  1.1713 -1.0889
 4293WAT      O13280   4.179   1.580   3.070 -0.6222  0.0077  0.4506
 4293WAT     H113281   4.212   1.521   3.137  0.5942  0.4350  0.2406
 4293WAT     H213282   4.247   1.647   3.060 -1.1037  0.3579 -0.6975
 4294WAT      O13283   4.429   4.773   0.172  0.0477  0.1884 -1.0690
 4294WAT     H113284   4.524   4.762   0.172 -0.0224 -0.4980 -0.3742
 4294WAT     H213285   4.408   4.797   0.263 -0.6069 -1.3036 -0.7948
 4295WAT      O13286   6.060   1.184   5.823 -0.1681  0.2521 -0.2556
 4295WAT     H113287   6.021   1.224   5.901  1.8960  1.0503  0.4468
 4295WAT     H213288   6.134   1.133   5.857  0.2803 -0.0486 -1.6314
 4296WAT      O13289   1.454   6.514   0.205  0.2784 -0.4484  0.3779
 4296WAT     H113290   1.433   6.420   0.209 -0.0519 -0.3424  1.4565
 4296WAT     H213291   1.493   6.533   0.290  1.5387  0.1316 -0.3018
 4297WAT      O13292   3.499   6.018   3.994  0.3966  0.1091 -0.1856
 4297WAT     H113293   3.454   5.981   3.919  1.3406  0.7072 -1.0802
 4297WAT     H213294   3.429   6.046   4.053 -0.4618  1.7543 -1.8854
 4298WAT      O13295   1.795   3.905   2.773  0.5327 -0.8032 -0.0244
 4298WAT     H113296   1.874   3.930   2.725  0.6382  1.5003  1.1849
 4298WAT     H213297   1.826   3.880   2.860  0.1370 -2.7159 -0.3909
 4299WAT      O13298   3.723   2.985   5.800  0.0254  0.2583  0.3339
 4299WAT     H113299   3.687   2.897   5.805  0.6589 -0.2381 -2.3418
 4299WAT     H213300   3.768   2.997   5.883  0.0756 -2.0124  0.7003
 4300WAT      O13301   0.437   1.970   5.413  0.0804  0.1599 -0.3046
 4300WAT     H113302   0.412   1.990   5.323 -0.9590  0.4440  0.0349
 4300WAT     H213303   0.390   2.034   5.466  0.6282 -0.0486  0.4505
 4301WAT      O13304   2.861   4.733   1.042 -0.0811 -0.1243 -0.0432
 4301WAT     H113305   2.877   4.827   1.051 -1.1356 -0.1678  3.8551
 4301WAT     H213306   2.902   4.694   1.119  1.7303 -3.1711 -2.3239
 4302WAT      O13307   1.505   2.349   3.112  0.0195 -0.7201 -0.2508
 4302WAT     H113308   1.417   2.362   3.149  0.7529  0.4141  1.2257
 4302WAT     H213309   1.492   2.353   3.018 -1.5083 -0.4859 -0.0567
 4303WAT      O13310   4.247   1.063   5.157 -0.5165 -0.1227  0.4319
 4303WAT     H113311   4.246   1.102   5.244  0.5007 -0.4066  0.5775
 4303WAT     H213312   4.213   0.974   5.170 -0.8666  0.0118  0.4460
 4304WAT      O13313   7.416   4.776   3.267 -0.1575 -0.5689  0.0297
 4304WAT     H113314   7.491   4.718   3.254 -0.1888 -1.1695  2.1908
 4304WAT     H213315   7.340   4.718   3.259 -0.3756 -0.1462 -1.1714
 4305WAT      O13316   4.302   5.470   3.827 -0.0414  0.0703  0.6739
 4305WAT     H113317   4.210   5.453   3.805  0.1120 -0.6718  0.6023
 4305WAT     H213318   4.304   5.467   3.923 -0.1269  0.2795  0.6829
 4306WAT      O13319   0.304   6.325   0.101 -0.2271 -0.3303 -0.1365
 4306WAT     H113320   0.342   6.294   0.184  0.3069  0.6049 -0.0192
 4306WAT     H213321   0.380   6.354   0.050 -0.6708  0.2668 -0.4597
 4307WAT      O13322   3.163   3.744   3.899 -0.0622 -0.1043 -0.2950
 4307WAT     H113323   3.190   3.680   3.964 -0.3946 -1.5993 -1.5592
 4307WAT     H213324   3.244   3.767   3.853  0.2125  1.1386  0.7724
 4308WAT      O13325   2.228   1.193   4.278 -0.2631 -0.0644  0.2977
 4308WAT     H113326   2.239   1.239   4.361  0.2644 -0.6139  0.5362
 4308WAT     H213327   2.209   1.263   4.215 -1.3720  0.2845  0.9992
 4309WAT      O13328   4.126   0.522   1.877 -0.3423 -0.0585  0.2901
 4309WAT     H113329   4.101   0.431   1.892 -0.1442  0.1657  2.2752
 4309WAT     H213330   4.145   0.557   1.964  1.9413  1.2027 -0.6141
 4310WAT      O13331   7.401   7.179   1.515  0.3599  0.0064  0.0962
 4310WAT     H113332   7.456   7.254   1.492  0.6124 -0.4705 -0.8818
 4310WAT     H213333   7.447   7.139   1.589  0.6495  0.3550  0.1113
 4311WAT      O13334   5.098   1.328   1.734  0.4776 -0.0966  0.6074
 4311WAT     H113335   5.139   1.352   1.651  0.5045 -1.3071  0.2525
 4311WAT     H213336   5.052   1.408   1.762  0.2996  0.2738 -0.6676
 4312WAT      O13337   3.948   6.253   5.153 -0.0978 -0.1572  0.2706
 4312WAT     H113338   4.040   6.280   5.151  0.4213 -1.8253  0.0170
 4312WAT     H213339   3.942   6.194   5.228 -0.4733 -1.5611 -0.8147
 4313WAT      O13340   7.025   3.274   0.145  0.1280 -0.2089  0.2881
 4313WAT     H113341   6.950   3.308   0.194 -0.4938 -0.7558 -0.2660
 4313WAT     H213342   7.010   3.179   0.140  0.5214 -0.2456 -0.3824
 4314WAT      O13343   2.005   6.597   2.616  0.3946  0.0433  0.6763
 4314WAT     H113344   2.016   6.603   2.711  1.1684  1.6373  0.5224
 4314WAT     H213345   2.089   6.627   2.581 -0.5843  1.5500 -0.5185
 4315WAT      O13346   6.841   6.951   4.539 -0.0105 -0.2741  0.5055
 4315WAT     H113347   6.893   6.903   4.474 -1.4974 -0.1312 -0.8476
 4315WAT     H213348   6.886   7.035   4.548 -1.0845  0.7145 -2.2791
 4316WAT      O13349   3.479   1.186   4.943 -0.1451 -0.1339  0.1980
 4316WAT     H113350   3.515   1.137   4.869  3.8100  0.0030  1.8253
 4316WAT     H213351   3.450   1.269   4.904 -1.2180 -1.2936 -1.6246
 4317WAT      O13352   2.605   3.809   3.933  0.5084 -0.4852 -0.1566
 4317WAT     H113353   2.697   3.833   3.928  0.2791  0.2113 -1.3952
 4317WAT     H213354   2.566   3.873   3.992  1.0073 -1.4790  1.3089
 4318WAT      O13355   3.615   4.638   1.099  0.0938 -0.3819 -0.0492
 4318WAT     H113356   3.523   4.622   1.079 -0.8141  2.7154  1.1499
 4318WAT     H213357   3.639   4.566   1.157 -2.1610 -0.2414  1.1786
 4319WAT      O13358   5.646   5.781   2.798  0.3737  0.1951  0.2447
 4319WAT     H113359   5.650   5.715   2.867  0.0658  0.0879  0.1605
 4319WAT     H213360   5.553   5.801   2.789  0.5173  1.1669  0.7602
 4320WAT      O13361   4.985   4.444   3.529 -0.5041  0.2209 -0.3101
 4320WAT     H113362   5.071   4.474   3.499  0.2543 -0.9700  0.5660
 4320WAT     H213363   4.959   4.378   3.465  0.0920 -0.7258  0.4021
 4321WAT      O13364   3.557   2.363   5.616  0.6286 -0.5116 -0.7301
 4321WAT     H113365   3.565   2.434   5.679  1.4812  1.0610 -2.5064
 4321WAT     H213366   3.463   2.348   5.607  0.3032  1.8454 -1.8051
 4322WAT      O13367   1.956   3.895   4.831 -0.2006  0.3813  0.6736
 4322WAT     H113368   2.050   3.890   4.814 -0.6767 -0.9456 -2.2990
 4322WAT     H213369   1.942   3.841   4.908  1.2319 -1.4531 -0.2800
 4323WAT      O13370   1.639   2.674   5.560 -0.4909 -0.5449  0.1993
 4323WAT     H113371   1.552   2.712   5.564 -1.0323 -1.5600 -1.1116
 4323WAT     H213372   1.626   2.581   5.579  0.2664 -0.7490 -0.2052
 4324WAT      O13373   0.573   3.021   1.783 -0.0194 -0.1659  0.2915
 4324WAT     H113374   0.525   3.052   1.860 -1.2816  0.5520 -0.7482
 4324WAT     H213375   0.599   2.931   1.806  0.6687  0.4315  1.9885
 4325WAT      O13376   5.500   6.248   3.651 -0.4129  0.0169 -0.2378
 4325WAT     H113377   5.466   6.161   3.631  0.6590 -0.2200 -1.1249
 4325WAT     H213378   5.548   6.237   3.733 -0.1964 -0.2659 -0.3984
 4326WAT      O13379   7.186   4.041   2.072 -0.4756 -0.0651  0.4467
 4326WAT     H113380   7.227   4.083   1.997  1.9887 -2.0118  0.5783
 4326WAT     H213381   7.099   4.081   2.077  0.4233  2.4159 -1.4554
 4327WAT      O13382   3.337   3.148   2.508  0.0724 -0.4658  0.0079
 4327WAT     H113383   3.269   3.212   2.529  0.6386  0.3681 -0.6756
 4327WAT     H213384   3.296   3.063   2.527 -1.4559 -0.0355 -1.1830
 4328WAT      O13385   6.413   4.464   3.023  0.2882  0.3621  0.3786
 4328WAT     H113386   6.386   4.524   3.093 -0.7384  1.0927 -0.5998
 4328WAT     H213387   6.508   4.464   3.025  0.3009  1.9837  0.4489
 4329WAT      O13388   1.203   3.909   3.756 -0.2832 -0.1166  0.2139
 4329WAT     H113389   1.287   3.951   3.773  0.9172 -1.5172 -1.8192
 4329WAT     H213390   1.142   3.952   3.816  1.1837  3.1831 -0.4711
 4330WAT      O13391   6.303   3.830   4.116  0.4561  0.0614 -0.1841
 4330WAT     H113392   6.376   3.884   4.147  0.9866 -0.7129 -0.0422
 4330WAT     H213393   6.326   3.741   4.143 -2.5792  0.2069  3.8299
 4331WAT      O13394   5.111   1.739   5.967 -0.4947  0.4148  0.1990
 4331WAT     H113395   5.063   1.706   6.042  1.3479 -1.2446  0.7400
 4331WAT     H213396   5.161   1.814   6.002  0.1687 -0.1990  0.5903
 4332WAT      O13397   2.076   6.377   5.286 -0.2622  0.0440 -0.0373
 4332WAT     H113398   2.037   6.430   5.356 -0.6488 -0.1456 -0.1049
 4332WAT     H213399   2.124   6.309   5.332 -0.1597  0.1714  0.0459
 4333WAT      O13400   4.122   5.343   0.906  0.5800 -0.4408  0.1205
 4333WAT     H113401   4.147   5.435   0.903 -0.3660 -0.1890 -0.4118
 4333WAT     H213402   4.040   5.342   0.955  2.0143 -1.3608  2.6817
 4334WAT      O13403   5.262   1.427   4.878  0.0006 -0.3052  0.3834
 4334WAT     H113404   5.233   1.516   4.896  2.2078  0.7365 -0.7593
 4334WAT     H213405   5.318   1.405   4.953  0.1488 -0.3840  0.2499
 4335WAT      O13406   3.411   0.714   0.369  0.0305 -0.4629  0.0504
 4335WAT     H113407   3.460   0.743   0.446  1.5855 -0.2410 -0.9726
 4335WAT     H213408   3.348   0.785   0.353 -1.1709 -1.0696  1.7874
 4336WAT      O13409   6.790   3.233   2.737 -0.0493  0.1099  0.2463
 4336WAT     H113410   6.791   3.202   2.827 -0.9659 -0.5668  0.0342
 4336WAT     H213411   6.833   3.163   2.687 -0.8387 -0.1806 -0.0352
 4337WAT      O13412   2.822   5.500   5.824  0.9944  0.0873 -0.0675
 4337WAT     H113413   2.763   5.425   5.836  0.3201  0.7292  0.7918
 4337WAT     H213414   2.765   5.570   5.791  1.2805  0.6812  0.6609
 4338WAT      O13415   4.353   1.600   2.759 -0.4594 -0.2486 -0.0236
 4338WAT     H113416   4.292   1.648   2.815 -1.1773 -0.5227 -0.5521
 4338WAT     H213417   4.434   1.595   2.810 -1.2885 -1.0664  1.2684
 4339WAT      O13418   3.600   2.766   4.224 -0.4378  0.1972 -0.5462
 4339WAT     H113419   3.532   2.832   4.234 -1.2699 -0.9576  2.2870
 4339WAT     H213420   3.649   2.769   4.306 -0.3513 -2.4810 -0.4168
 4340WAT      O13421   2.854   5.345   2.179  0.5352  0.2212 -0.2886
 4340WAT     H113422   2.791   5.401   2.223  0.7244 -0.1666  0.5012
 4340WAT     H213423   2.910   5.311   2.250  0.0849 -1.3888 -0.6572
 4341WAT      O13424   3.320   5.626   1.946 -0.4550 -0.2120 -0.2231
 4341WAT     H113425   3.410   5.607   1.920 -0.7764 -1.6833 -0.3386
 4341WAT     H213426   3.326   5.643   2.040 -0.0398 -0.1025 -0.2654
 4342WAT      O13427   1.704   4.263   2.795 -0.0985  1.1469  0.2496
 4342WAT     H113428   1.691   4.232   2.885 -0.4094  0.6391  0.0337
 4342WAT     H213429   1.789   4.307   2.797 -0.7854  2.5127  1.1634
 4343WAT      O13430   2.731   5.510   0.944  0.2769  0.5523 -0.0026
 4343WAT     H113431   2.715   5.532   1.036  1.1416  1.2704 -0.0067
 4343WAT     H213432   2.820   5.540   0.928  0.5146 -0.5294 -0.7924
 4344WAT      O13433   3.126   5.419   1.910  0.7731 -0.7962 -0.2721
 4344WAT     H113434   3.148   5.354   1.976  0.4205 -1.1087 -0.4595
 4344WAT     H213435   3.191   5.488   1.921  0.8885 -0.9819  0.2115
 4345WAT      O13436   5.357   6.524   0.544  0.1733  1.0376  0.1587
 4345WAT     H113437   5.388   6.436   0.567 -0.5074  0.8024  0.1951
 4345WAT     H213438   5.268   6.510   0.511 -0.3357  1.8291  1.1452
 4346WAT      O13439   0.982   1.244   0.003 -0.5016  0.0314  0.2711
 4346WAT     H113440   0.897   1.282  -0.019 -0.4399  0.1437  0.2232
 4346WAT     H213441   1.031   1.317   0.042  0.0699  0.3647 -0.9962
 4347WAT      O13442   1.820   3.000   5.118  0.6358 -0.2362  0.3766
 4347WAT     H113443   1.854   3.088   5.103 -0.2195 -0.0409 -0.5239
 4347WAT     H213444   1.801   2.997   5.212  0.0421  0.7841  0.3053
 4348WAT      O13445   0.743   4.199   1.462 -0.5355 -0.3341  0.4033
 4348WAT     H113446   0.750   4.155   1.547 -1.5360 -0.1331  0.5975
 4348WAT     H213447   0.714   4.130   1.402 -1.3430 -0.1210  0.5471
 4349WAT      O13448   2.643   1.029   4.100  0.0516 -0.2566 -0.6721
 4349WAT     H113449   2.637   0.980   4.018  0.9243 -3.6047  1.0463
 4349WAT     H213450   2.574   0.992   4.155  0.4044  0.8559  0.5698
 4350WAT      O13451   1.289   3.227   2.237 -0.4365 -0.0660  0.1122
 4350WAT     H113452   1.209   3.190   2.276 -0.1886  1.0884  1.8491
 4350WAT     H213453   1.285   3.320   2.259 -0.3364  0.7295 -2.8848
 4351WAT      O13454   4.279   3.049   0.899  0.2861 -0.6057  0.3540
 4351WAT     H113455   4.234   3.107   0.837 -2.2588 -1.8078  0.9252
 4351WAT     H213456   4.272   3.095   0.983  0.7871 -0.4588  0.3140
 4352WAT      O13457   5.753   5.097   5.726 -0.0175  0.2528  0.3057
 4352WAT     H113458   5.747   5.064   5.636 -0.8969 -0.6519  0.6761
 4352WAT     H213459   5.711   5.182   5.723 -0.1335  0.1841 -0.1256
 4353WAT      O13460   3.378   0.066   6.141  0.3061  0.8675  0.0299
 4353WAT     H113461   3.284   0.055   6.157  0.5267 -0.5638  0.4529
 4353WAT     H213462   3.400   0.149   6.184 -0.8671  1.5170 -0.5766
 4354WAT      O13463   0.222   5.891   2.740  0.0255  0.1995 -0.4027
 4354WAT     H113464   0.221   5.795   2.740  0.1549  0.1978 -0.4703
 4354WAT     H213465   0.139   5.916   2.699  0.1194  0.1135 -0.6464
 4355WAT      O13466   7.512   5.291   2.405 -0.2922  0.2802 -0.3615
 4355WAT     H113467   7.598   5.254   2.424  0.3212  0.2503 -2.7698
 4355WAT     H213468   7.505   5.367   2.463  0.7910 -0.4394  0.7678
 4356WAT      O13469   1.655   5.499   1.100 -0.2459  0.2108 -0.1998
 4356WAT     H113470   1.698   5.424   1.140  0.7107  0.4227 -0.8001
 4356WAT     H213471   1.632   5.556   1.175 -0.1352 -0.2394  0.1811
 4357WAT      O13472   3.983   3.911   0.392 -0.4575 -0.9632  0.4474
 4357WAT     H113473   3.897   3.952   0.400  0.0897  0.1788  0.6006
 4357WAT     H213474   4.044   3.975   0.429  0.3590 -2.1765  1.2619
 4358WAT      O13475   5.674   1.876   5.586  0.2168 -0.2891 -0.4242
 4358WAT     H113476   5.603   1.818   5.614 -0.2449  1.3477  2.1623
 4358WAT     H213477   5.737   1.875   5.658  0.6168  1.6874 -0.6749
 4359WAT      O13478   0.852   5.653   5.804  0.3677 -0.0715 -0.4516
 4359WAT     H113479   0.907   5.575   5.805  2.5358  1.3592 -0.5027
 4359WAT     H213480   0.798   5.643   5.726  0.6280 -1.4749 -0.4823
 4360WAT      O13481   3.654   5.687   0.080 -0.1755 -0.6540 -0.2585
 4360WAT     H113482   3.615   5.772   0.061 -0.5408 -1.0394 -1.2899
 4360WAT     H213483   3.599   5.651   0.149 -1.1308 -0.8182 -1.0902
 4361WAT      O13484   5.243   0.081   4.397 -0.6551 -0.1917 -0.4231
 4361WAT     H113485   5.236  -0.005   4.356 -0.5983 -0.2776 -0.2532
 4361WAT     H213486   5.169   0.131   4.362 -3.0920 -1.5103  2.4406
 4362WAT      O13487   5.198   4.217   1.660 -0.2868  0.2664 -0.1346
 4362WAT     H113488   5.227   4.210   1.751 -1.8225 -1.0778  0.3253
 4362WAT     H213489   5.216   4.307   1.635  2.5634 -0.0245  0.6135
 4363WAT      O13490   1.761   3.211   3.054 -0.1111 -0.1562 -0.3803
 4363WAT     H113491   1.798   3.274   3.116 -0.1395 -0.3951 -0.1210
 4363WAT     H213492   1.799   3.127   3.080 -0.6640 -0.3684 -0.2485
 4364WAT      O13493   5.370   5.727   2.080 -0.5641  0.1682  0.3726
 4364WAT     H113494   5.462   5.750   2.096 -0.5428  0.1598  0.2609
 4364WAT     H213495   5.323   5.766   2.154 -0.4421 -0.0294  0.5573
 4365WAT      O13496   1.319   6.824   5.444  0.3646  0.1318  0.1440
 4365WAT     H113497   1.323   6.729   5.448  2.3040  0.1393 -0.5912
 4365WAT     H213498   1.249   6.843   5.382 -0.2673 -0.7887  0.5530
 4366WAT      O13499   2.484   6.489   0.132  0.4749 -0.4680 -0.0642
 4366WAT     H113500   2.515   6.512   0.044  0.8965  0.5176  0.3168
 4366WAT     H213501   2.491   6.571   0.181  2.1787 -1.4486  1.4375
 4367WAT      O13502   7.483   5.059   1.472 -0.3554  0.0491  0.0191
 4367WAT     H113503   7.568   5.099   1.491 -0.8901  0.6106  1.3173
 4367WAT     H213504   7.504   4.967   1.457  0.2693 -0.3171  2.6347
 4368WAT      O13505   0.135   1.442   1.405  0.0497  0.4697 -0.0420
 4368WAT     H113506   0.146   1.533   1.380 -1.2161  0.4165 -0.8938
 4368WAT     H213507   0.179   1.435   1.490  0.6164  1.7267 -0.2078
 4369WAT      O13508   1.875   4.650   2.918 -0.5649 -0.2217  0.0993
 4369WAT     H113509   1.793   4.684   2.882 -2.0517 -1.4355  2.1008
 4369WAT     H213510   1.881   4.690   3.005  0.1361 -1.3840  0.6020
 4370WAT      O13511   6.830   1.797   3.634  0.4480 -0.3985  0.0284
 4370WAT     H113512   6.761   1.794   3.701 -0.8737  2.8945 -0.9794
 4370WAT     H213513   6.902   1.844   3.676  0.9476 -1.2509  0.1453
 4371WAT      O13514   6.313   0.451   4.382  0.2219 -0.2362  0.3946
 4371WAT     H113515   6.309   0.431   4.476 -2.1008  0.5630  0.5410
 4371WAT     H213516   6.327   0.546   4.379  0.6116 -0.3081 -0.0781
 4372WAT      O13517   3.683   0.855   5.620 -0.0836 -0.2684  0.2321
 4372WAT     H113518   3.609   0.883   5.567 -0.0811 -0.0234  0.3561
 4372WAT     H213519   3.713   0.935   5.663 -0.6358 -0.6159  1.2948
 4373WAT      O13520   0.238   6.870   5.624 -0.4418  0.2163  0.1625
 4373WAT     H113521   0.224   6.962   5.601 -0.5271 -0.0515 -0.8901
 4373WAT     H213522   0.151   6.840   5.653 -1.4659 -0.5341 -3.1825
 4374WAT      O13523   4.825   6.688   3.326  0.5665  0.5935 -0.2465
 4374WAT     H113524   4.841   6.768   3.276 -0.9438  0.7549 -0.5402
 4374WAT     H213525   4.772   6.633   3.267 -1.5554  0.9323  1.2243
 4375WAT      O13526   3.085   0.956   0.101  0.2832 -0.2234 -0.2970
 4375WAT     H113527   3.013   0.908   0.060  0.7332 -1.0625 -0.1380
 4375WAT     H213528   3.098   0.912   0.186  0.8624  0.0211 -0.2519
 4376WAT      O13529   4.212   4.426   3.580  0.3345  0.3854 -0.1689
 4376WAT     H113530   4.243   4.487   3.646  1.0846  0.2933 -0.4334
 4376WAT     H213531   4.290   4.401   3.530 -0.3223  1.0257 -1.5755
 4377WAT      O13532   6.829   5.735   3.995  0.4375 -1.1081 -0.0685
 4377WAT     H113533   6.829   5.764   3.903  0.6404 -1.7505 -0.2762
 4377WAT     H213534   6.740   5.702   4.009  0.3933 -0.9697 -0.0179
 4378WAT      O13535   0.457   3.745   0.464 -0.0525 -0.1504 -0.4628
 4378WAT     H113536   0.447   3.650   0.476  1.4959 -0.4676 -1.3271
 4378WAT     H213537   0.509   3.773   0.540  0.8323 -0.3022 -0.9920
 4379WAT      O13538   7.617   5.431   5.762  0.1781  0.0289 -0.6428
 4379WAT     H113539   7.685   5.367   5.746 -0.8618 -1.0881 -0.7619
 4379WAT     H213540   7.661   5.516   5.756  1.5044 -0.6574 -0.8412
 4380WAT      O13541   6.184   5.624   0.406  0.0651  0.2557 -0.3277
 4380WAT     H113542   6.191   5.719   0.393 -0.2484  0.2833 -0.2920
 4380WAT     H213543   6.274   5.593   0.397  0.3302  0.6810  0.6971
 4381WAT      O13544   4.920   5.781   1.768 -0.3929 -0.2038 -0.4439
 4381WAT     H113545   4.851   5.830   1.813 -0.3334 -1.9610  1.7165
 4381WAT     H213546   4.989   5.772   1.833  1.2722  0.1905 -2.0785
 4382WAT      O13547   1.390   2.641   1.710  0.2242  0.0478  0.1557
 4382WAT     H113548   1.340   2.722   1.700 -0.3062  0.1806  3.0752
 4382WAT     H213549   1.462   2.649   1.647 -0.7778  1.9703 -0.8369
 4383WAT      O13550   1.995   5.487   2.317 -0.0198  0.3851  0.2408
 4383WAT     H113551   2.073   5.432   2.322  0.2746  0.8135  0.3973
 4383WAT     H213552   2.028   5.577   2.320 -0.5060  0.5709  0.1312
 4384WAT      O13553   2.490   0.654   1.375 -0.2129 -0.1208 -0.7973
 4384WAT     H113554   2.415   0.607   1.339  0.8367 -1.2227 -1.6459
 4384WAT     H213555   2.460   0.744   1.386 -2.0474 -0.7950  0.1070
 4385WAT      O13556   5.721   4.382   1.964 -0.6364  0.1432 -0.0797
 4385WAT     H113557   5.728   4.354   2.056 -1.9973  0.7766  0.2349
 4385WAT     H213558   5.700   4.475   1.968  2.4126  1.0003 -1.1090
 4386WAT      O13559   3.340   6.524   5.071 -0.3243 -0.7736  0.2653
 4386WAT     H113560   3.380   6.560   5.150 -0.2324 -2.6243  1.1025
 4386WAT     H213561   3.291   6.597   5.033  1.8950  0.9292  0.4829
 4387WAT      O13562   0.101   5.557   6.202  0.2440 -0.0490 -0.2115
 4387WAT     H113563   0.166   5.507   6.153  2.0454 -1.7296  3.4772
 4387WAT     H213564   0.152   5.614   6.259 -1.5982  0.7293  0.7605
 4388WAT      O13565   5.149   2.723   0.230  0.1287  0.2108  0.1236
 4388WAT     H113566   5.181   2.640   0.265 -1.0992 -0.4074 -0.1484
 4388WAT     H213567   5.057   2.706   0.209 -0.6487  2.1363  1.6467
 4389WAT      O13568   3.025   1.293   3.611 -0.1169 -0.1898 -0.2408
 4389WAT     H113569   3.035   1.304   3.706 -1.1951 -0.9146 -0.0094
 4389WAT     H213570   3.097   1.342   3.572  0.5013 -0.1068  0.9682
 4390WAT      O13571   5.291   1.349   1.529 -0.4867 -1.2140  0.0175
 4390WAT     H113572   5.292   1.403   1.449  0.8081  0.5035  1.1154
 4390WAT     H213573   5.286   1.259   1.497  0.1522 -0.5922 -2.0154
 4391WAT      O13574   4.598   7.025   5.370  0.9251 -0.0573  0.4871
 4391WAT     H113575   4.656   6.973   5.426  0.7087 -1.6871 -0.7133
 4391WAT     H213576   4.651   7.042   5.291  0.6628  0.7331  0.4784
 4392WAT      O13577   2.605   5.775   1.047 -0.0909 -0.0017  0.0926
 4392WAT     H113578   2.653   5.765   1.129  0.9493  0.5222 -0.4193
 4392WAT     H213579   2.519   5.739   1.064  0.0972  0.1342  1.4212
 4393WAT      O13580   3.329   3.129   0.840 -0.4431 -0.0683 -0.3666
 4393WAT     H113581   3.380   3.205   0.867 -0.8273  0.2050 -0.4143
 4393WAT     H213582   3.354   3.060   0.902 -0.6630  0.3074  0.1456
 4394WAT      O13583   4.946   6.188   1.047  0.5516 -0.4579 -0.1257
 4394WAT     H113584   4.921   6.266   0.998  1.5399  0.3966  0.6631
 4394WAT     H213585   4.865   6.158   1.088  0.5511  1.8415  1.8289
 4395WAT      O13586   5.188   1.789   4.219 -0.2303 -0.6142 -0.4130
 4395WAT     H113587   5.163   1.861   4.276  0.4606 -0.1089 -0.7196
 4395WAT     H213588   5.123   1.790   4.148 -0.3307 -0.4074 -0.3176
 4396WAT      O13589   3.648   4.448   0.831 -0.7314  0.9122  0.0058
 4396WAT     H113590   3.733   4.459   0.873 -0.6802 -0.4133  0.2892
 4396WAT     H213591   3.591   4.416   0.900 -0.5811 -1.5370 -0.9228
 4397WAT      O13592   3.064   2.330   3.419  0.4664 -0.0452 -0.3274
 4397WAT     H113593   3.069   2.357   3.510 -1.3574 -0.7502  0.0253
 4397WAT     H213594   2.994   2.384   3.381  2.1786  1.3150 -1.7572
 4398WAT      O13595   2.847   6.125   2.077 -0.2473  0.5122  0.4139
 4398WAT     H113596   2.759   6.128   2.039  0.0258 -2.2577 -0.6252
 4398WAT     H213597   2.881   6.039   2.054  2.4235  1.1435  1.5791
 4399WAT      O13598   6.250   1.588   0.975  0.6022 -0.6802 -0.2421
 4399WAT     H113599   6.282   1.573   1.064 -2.3632 -0.4134  0.9802
 4399WAT     H213600   6.273   1.508   0.928  1.2015 -1.3258  1.0884
 4400WAT      O13601   3.569   5.832   5.379  0.4154 -0.7970 -0.6882
 4400WAT     H113602   3.541   5.805   5.466  1.4239 -1.8338 -0.6593
 4400WAT     H213603   3.488   5.845   5.330 -0.1510 -2.4206 -0.2438
 4401WAT      O13604   6.352   6.006   0.561  0.3905  0.0004 -0.4127
 4401WAT     H113605   6.327   6.097   0.543 -0.8979 -0.2157  0.1854
 4401WAT     H213606   6.355   6.000   0.656  0.1267 -0.6592 -0.4395
 4402WAT      O13607   6.873   3.714   3.636 -0.3930  0.5470 -0.1452
 4402WAT     H113608   6.842   3.750   3.719 -2.2244 -0.8931 -0.1287
 4402WAT     H213609   6.966   3.733   3.635  0.1109 -0.9463  3.1526
 4403WAT      O13610   3.677   0.160   2.313  0.1729  0.0302  0.0236
 4403WAT     H113611   3.713   0.191   2.396 -0.9290  0.7311  0.2596
 4403WAT     H213612   3.687   0.065   2.316  1.0662  0.1352  0.5127
 4404WAT      O13613   5.828   6.549   5.886 -0.2029 -0.1171 -0.0891
 4404WAT     H113614   5.853   6.639   5.906  1.3238 -0.3911 -0.6607
 4404WAT     H213615   5.811   6.509   5.972 -2.3011  1.0593  0.1065
 4405WAT      O13616   0.513   0.450   3.495 -0.1724  0.2507 -0.6760
 4405WAT     H113617   0.529   0.385   3.563 -1.6571  1.1370  0.6084
 4405WAT     H213618   0.541   0.533   3.535  0.0482  0.6241 -1.5964
 4406WAT      O13619   0.797   3.896   3.955 -0.0878 -0.1833  0.4690
 4406WAT     H113620   0.867   3.958   3.976  0.3827 -0.6046  0.1696
 4406WAT     H213621   0.841   3.825   3.909 -0.9576  0.3962 -1.3762
 4407WAT      O13622   7.469   3.575   4.040 -0.5947  0.1666  0.0093
 4407WAT     H113623   7.456   3.482   4.025 -0.1081  0.1357 -0.2374
 4407WAT     H213624   7.468   3.585   4.135  1.0244 -0.3461  0.1014
 4408WAT      O13625   5.191   6.381   3.048 -0.5850  0.7873 -0.2261
 4408WAT     H113626   5.268   6.329   3.072  0.6171  2.1027 -1.0217
 4408WAT     H213627   5.201   6.462   3.097 -1.5758  0.9133 -0.2193
 4409WAT      O13628   1.136   0.322   4.583  0.6176 -0.4465  0.1259
 4409WAT     H113629   1.082   0.298   4.659  0.8703 -0.5553  0.2722
 4409WAT     H213630   1.152   0.415   4.594  0.2640 -0.3632 -0.0426
 4410WAT      O13631   1.023   1.390   6.152  0.7189 -0.5467 -0.4030
 4410WAT     H113632   1.077   1.313   6.167 -1.1637 -1.4059  2.9376
 4410WAT     H213633   0.939   1.356   6.123 -0.0108  0.2170  0.7160
 4411WAT      O13634   1.553   6.944   5.429 -0.2296  0.8806 -0.3390
 4411WAT     H113635   1.460   6.922   5.436 -0.3013  0.4926 -2.0702
 4411WAT     H213636   1.599   6.865   5.455 -0.4236  0.4431 -1.2913
 4412WAT      O13637   2.620   2.560   4.597  0.0466 -0.2578  0.0094
 4412WAT     H113638   2.528   2.587   4.596  1.0444  3.7495 -0.3910
 4412WAT     H213639   2.654   2.592   4.680  1.4079 -0.4150 -0.4519
 4413WAT      O13640   6.476   2.920   4.590  0.4439  0.0171  0.9048
 4413WAT     H113641   6.410   2.865   4.632  0.7392 -0.0830  1.2470
 4413WAT     H213642   6.543   2.859   4.559 -0.5590 -0.0783 -1.2265
 4414WAT      O13643   5.117   0.302   2.620 -0.0812  1.0610  0.0686
 4414WAT     H113644   5.166   0.221   2.636 -3.5233 -1.1821  0.3753
 4414WAT     H213645   5.076   0.323   2.703 -0.0666  2.5680 -0.2750
 4415WAT      O13646   6.139   4.079   6.119  0.0030 -0.1245 -0.5674
 4415WAT     H113647   6.109   3.997   6.158 -0.2016  0.5643  0.7575
 4415WAT     H213648   6.116   4.146   6.182  0.4957  0.9311 -1.4723
 4416WAT      O13649   5.776   3.064   1.492 -0.3313 -0.4633  0.1650
 4416WAT     H113650   5.793   3.153   1.523  1.1295 -1.0257  1.0703
 4416WAT     H213651   5.828   3.008   1.550  0.1533 -1.7769 -1.4624
 4417WAT      O13652   0.568   6.363   6.219  0.8578  0.3838 -0.2651
 4417WAT     H113653   0.528   6.437   6.266 -0.2218  1.5216 -2.8016
 4417WAT     H213654   0.661   6.369   6.241  0.6752  2.0236  0.2127
 4418WAT      O13655   5.996   3.461   5.542  0.1172  0.6811 -0.2305
 4418WAT     H113656   6.001   3.485   5.635 -1.4840  2.6195 -0.5781
 4418WAT     H213657   5.965   3.540   5.498 -2.8625 -1.2281 -1.8894
 4419WAT      O13658   3.047   1.151   0.413 -0.0265  0.0006  0.4763
 4419WAT     H113659   3.059   1.217   0.481  0.5548  1.8961 -1.3547
 4419WAT     H213660   3.134   1.136   0.378 -0.3745 -0.5895 -0.1725
 4420WAT      O13661   0.393   1.686   2.405 -0.1500 -0.2747  0.0011
 4420WAT     H113662   0.478   1.681   2.362  0.3135 -0.7290  0.9477
 4420WAT     H213663   0.338   1.735   2.344  0.6800 -0.3139 -0.7908
 4421WAT      O13664   3.647   3.694   0.027 -0.3877 -0.2163  0.5523
 4421WAT     H113665   3.743   3.695   0.030 -0.3424  0.9687 -0.3279
 4421WAT     H213666   3.626   3.608  -0.009  0.3077 -0.7742  1.4425
 4422WAT      O13667   6.970   4.251   0.224 -0.5345 -0.5158 -1.3482
 4422WAT     H113668   6.889   4.217   0.264 -1.5932 -0.2465 -3.1607
 4422WAT     H213669   7.032   4.256   0.297 -2.0591 -0.9930  0.0512
 4423WAT      O13670   1.398   3.788   0.527 -0.0379 -0.8180  0.5185
 4423WAT     H113671   1.478   3.840   0.528 -0.7208  0.2758 -0.0203
 4423WAT     H213672   1.335   3.838   0.580 -2.0301  1.1855 -3.3609
 4424WAT      O13673   1.270   5.086   0.554  0.0133  0.3450 -0.6435
 4424WAT     H113674   1.271   5.139   0.475 -0.1820  2.1399  0.5185
 4424WAT     H213675   1.281   5.148   0.626 -0.8132 -1.1086  0.8190
 4425WAT      O13676   6.888   2.269   2.806 -0.1224  0.1620 -0.2249
 4425WAT     H113677   6.908   2.205   2.874  0.3419 -0.4694 -0.9389
 4425WAT     H213678   6.833   2.222   2.744  0.8087  0.2242 -1.1197
 4426WAT      O13679   5.619   2.571   2.244  0.2479  0.1268 -0.1609
 4426WAT     H113680   5.678   2.587   2.318 -0.2399  1.2663  0.0050
 4426WAT     H213681   5.546   2.522   2.282  0.8625 -0.9006 -0.2778
 4427WAT      O13682   4.765   0.841   5.942 -0.3100 -0.0912 -0.0420
 4427WAT     H113683   4.692   0.859   5.884  0.1649 -1.5534 -1.1527
 4427WAT     H213684   4.726   0.797   6.017 -0.7611  0.6873  0.1989
 4428WAT      O13685   5.613   1.102   0.290 -0.3222 -0.1109  0.1142
 4428WAT     H113686   5.686   1.095   0.352 -0.3078 -1.9316 -0.0683
 4428WAT     H213687   5.578   1.190   0.305  0.4414 -0.0521  1.8397
 4429WAT      O13688   0.300   5.454   5.402  0.3617  0.6127 -0.0458
 4429WAT     H113689   0.256   5.499   5.330 -1.5235  1.7808  1.7281
 4429WAT     H213690   0.321   5.523   5.465 -0.9825 -0.7121  1.9773
 4430WAT      O13691   1.814   4.671   2.126  0.2359  0.0748 -0.2863
 4430WAT     H113692   1.771   4.749   2.163 -1.6373 -1.5017  1.0745
 4430WAT     H213693   1.837   4.618   2.202 -1.7441 -2.2844 -1.2182
 4431WAT      O13694   0.347   7.112   0.402 -0.3528  0.1470  0.0515
 4431WAT     H113695   0.346   7.028   0.447 -2.0676  0.1716  0.1152
 4431WAT     H213696   0.375   7.175   0.469 -2.5434  0.1311  1.0642
 4432WAT      O13697   6.020   1.333   0.736  0.7402  0.3305 -0.3234
 4432WAT     H113698   5.995   1.421   0.763  2.5820  0.6159  0.6437
 4432WAT     H213699   6.023   1.336   0.640 -0.8899  0.8011 -0.3751
 4433WAT      O13700   1.955   1.647   5.041 -0.6556  0.2429 -0.0391
 4433WAT     H113701   1.919   1.634   5.129 -0.3500  3.3913  0.6866
 4433WAT     H213702   2.048   1.624   5.049 -0.6650  0.3599  0.4426
 4434WAT      O13703   0.862   0.360   0.511  0.2947 -0.5653 -0.0259
 4434WAT     H113704   0.821   0.427   0.567 -0.2485 -2.0007  1.3720
 4434WAT     H213705   0.949   0.349   0.549  1.5604  1.4316 -2.1015
 4435WAT      O13706   5.742   3.800   3.699  0.1991  0.2304  0.1224
 4435WAT     H113707   5.685   3.754   3.761 -0.0809  1.5327  0.8786
 4435WAT     H213708   5.799   3.854   3.754 -0.1701  1.5599 -0.7321
 4436WAT      O13709   5.554   2.787   3.250  0.1597  0.6193 -0.1548
 4436WAT     H113710   5.608   2.806   3.327  0.5623 -0.8339 -0.0594
 4436WAT     H213711   5.526   2.697   3.262  0.4311  0.2812 -1.8244
 4437WAT      O13712   5.999   2.170   5.196 -0.5560  0.2456  0.3730
 4437WAT     H113713   5.923   2.131   5.154  0.0769 -0.4667 -0.1467
 4437WAT     H213714   5.975   2.177   5.288 -1.8493  1.5448 -0.0341
 4438WAT      O13715   1.475   4.891   5.337  0.2183  0.5468  0.4647
 4438WAT     H113716   1.427   4.810   5.319  1.9384 -0.3025 -0.5647
 4438WAT     H213717   1.432   4.927   5.414 -1.9455 -0.2279 -0.2981
 4439WAT      O13718   6.943   0.587   2.318 -0.3118  0.3008  0.0054
 4439WAT     H113719   7.018   0.635   2.354 -1.4917  1.0031  1.6789
 4439WAT     H213720   6.933   0.621   2.229 -1.3030  3.5178  1.2064
 4440WAT      O13721   4.916   4.126   3.668 -0.2256 -0.1708  0.6710
 4440WAT     H113722   4.901   4.220   3.663  0.0791 -0.0498  1.8256
 4440WAT     H213723   4.837   4.091   3.711  0.0239 -0.3382  0.9935
 4441WAT      O13724   4.905   2.931   1.743 -0.2827  0.4422 -0.3700
 4441WAT     H113725   4.990   2.903   1.709 -0.3014  1.1842 -1.0361
 4441WAT     H213726   4.845   2.860   1.719 -0.0053  0.2687 -0.5559
 4442WAT      O13727   0.185   0.656   0.860  0.7913  0.5156 -0.1833
 4442WAT     H113728   0.193   0.669   0.954  1.4946  0.6598 -0.2550
 4442WAT     H213729   0.242   0.724   0.822  0.0228  0.8706 -0.7301
 4443WAT      O13730   5.476   5.280   5.034  0.1408 -0.0497  0.1604
 4443WAT     H113731   5.391   5.242   5.058 -0.4112  0.4725 -0.8995
 4443WAT     H213732   5.537   5.246   5.099 -0.4288 -2.2995 -0.3985
 4444WAT      O13733   3.886   0.574   3.436  0.4309 -0.4488  0.1744
 4444WAT     H113734   3.937   0.573   3.517  0.9476 -0.3126 -0.1452
 4444WAT     H213735   3.795   0.579   3.465  0.6466  0.4440  0.7281
 4445WAT      O13736   6.067   1.271   0.230  0.6026 -0.4558  0.5440
 4445WAT     H113737   6.147   1.281   0.282  1.1950  1.1647 -0.5808
 4445WAT     H213738   6.098   1.253   0.141 -0.4028 -3.8836  0.7525
 4446WAT      O13739   2.027   7.185   5.412  0.0693 -0.1232 -0.1702
 4446WAT     H113740   2.100   7.201   5.471  1.5410  2.7463 -2.4992
 4446WAT     H213741   2.067   7.145   5.334 -1.3321 -1.0912 -0.4461
 4447WAT      O13742   0.264   3.664   3.095  0.0844 -0.0342 -0.0792
 4447WAT     H113743   0.199   3.696   3.158 -0.4436  0.6075 -0.9307
 4447WAT     H213744   0.281   3.574   3.122 -0.6166  0.0266  0.6009
 4448WAT      O13745   3.875   5.272   5.338  0.3457  0.5341  0.1670
 4448WAT     H113746   3.812   5.329   5.382 -0.0407  0.4608 -0.2771
 4448WAT     H213747   3.832   5.248   5.256  0.1845 -1.0040  0.6702
 4449WAT      O13748   0.522   6.481   2.778 -0.0264  0.2275  0.5440
 4449WAT     H113749   0.572   6.558   2.751  0.3119 -0.5142 -1.0259
 4449WAT     H213750   0.493   6.502   2.867 -0.4889  2.4249 -0.0640
 4450WAT      O13751   6.592   1.646   1.326  0.4424  0.1917  0.0304
 4450WAT     H113752   6.647   1.637   1.403  0.5512  0.4502 -0.0159
 4450WAT     H213753   6.653   1.651   1.253  0.3026 -2.5731 -0.3648
 4451WAT      O13754   4.600   3.171   0.859 -0.9447 -0.1200 -0.3421
 4451WAT     H113755   4.516   3.137   0.828 -0.8636  0.8034 -1.6908
 4451WAT     H213756   4.660   3.096   0.854 -0.9563 -0.0486 -2.4862
 4452WAT      O13757   6.217   2.562   2.444 -0.1687  0.0876  0.1112
 4452WAT     H113758   6.264   2.641   2.472 -1.1649  1.7740 -2.5160
 4452WAT     H213759   6.286   2.495   2.436  0.7557  0.7347  2.0862
 4453WAT      O13760   0.361   1.824   3.194 -0.0295 -0.3358  0.2104
 4453WAT     H113761   0.279   1.782   3.166 -0.4105  0.5610 -0.0620
 4453WAT     H213762   0.350   1.836   3.289  0.1809 -1.0480  0.3299
 4454WAT      O13763   2.522   6.605   3.901 -0.4506 -0.3480 -0.3924
 4454WAT     H113764   2.507   6.528   3.957 -1.7937 -0.4832 -0.8809
 4454WAT     H213765   2.613   6.598   3.875  0.3424 -0.0883  2.0446
 4455WAT      O13766   5.206   4.775   4.114 -0.6390  0.0688  0.5193
 4455WAT     H113767   5.213   4.697   4.169  1.8116  1.1307  1.8518
 4455WAT     H213768   5.266   4.838   4.154 -2.8495  2.8402 -0.2454
 4456WAT      O13769   2.412   3.958   5.810 -0.0153  0.0397 -1.0109
 4456WAT     H113770   2.470   3.883   5.823 -1.9359 -1.6309 -1.5442
 4456WAT     H213771   2.377   3.946   5.721 -0.8467  1.2211 -0.8621
 4457WAT      O13772   4.328   2.049   4.171  0.8310 -0.0753  0.1427
 4457WAT     H113773   4.287   2.117   4.225  0.6578 -1.0202  1.2410
 4457WAT     H213774   4.417   2.042   4.206  0.4441 -1.3265  0.9739
 4458WAT      O13775   5.587   6.612   5.302 -0.1369 -0.1333 -0.2745
 4458WAT     H113776   5.570   6.687   5.245  0.4270  1.1402  1.1657
 4458WAT     H213777   5.514   6.552   5.285 -0.4898  0.6184 -1.6098
 4459WAT      O13778   7.030   6.172   5.526 -0.4207  0.5202 -0.6319
 4459WAT     H113779   7.015   6.200   5.616  0.1774 -1.7713  0.2605
 4459WAT     H213780   6.969   6.099   5.514 -0.1369  0.4761 -1.9120
 4460WAT      O13781   5.859   1.743   3.451  0.0631 -0.0702  0.2641
 4460WAT     H113782   5.899   1.670   3.404  0.4607  0.3426 -0.0515
 4460WAT     H213783   5.933   1.788   3.492 -0.0078  0.9795 -0.7181
 4461WAT      O13784   7.335   1.139   2.501 -0.0865  0.3130  0.2807
 4461WAT     H113785   7.270   1.209   2.506  0.1345  0.5409  0.0364
 4461WAT     H213786   7.416   1.178   2.535  0.0206  0.1576  0.2100
 4462WAT      O13787   5.002   5.332   1.337 -0.2743  0.0906  0.2488
 4462WAT     H113788   4.912   5.302   1.350 -0.5664  1.6532  2.0930
 4462WAT     H213789   5.042   5.328   1.423  0.4191  2.4956  0.1097
 4463WAT      O13790   4.555   3.957   4.266  0.1523 -0.5731 -0.4070
 4463WAT     H113791   4.626   3.906   4.305 -0.4786 -2.4473 -1.5850
 4463WAT     H213792   4.494   3.971   4.338  0.4265 -1.3201 -0.0163
 4464WAT      O13793   4.407   2.607   5.580 -0.1974 -0.2344  0.3027
 4464WAT     H113794   4.349   2.591   5.506  1.9426 -0.8396 -1.3470
 4464WAT     H213795   4.414   2.522   5.623 -0.3208 -0.2252  0.3421
 4465WAT      O13796   0.685   1.005   4.603  0.5918  0.2373  0.1758
 4465WAT     H113797   0.735   0.979   4.681  1.4801 -1.2979 -0.8470
 4465WAT     H213798   0.735   1.077   4.565  0.4239  0.6587  0.7386
 4466WAT      O13799   4.168   1.729   1.230 -0.0788 -0.3971 -0.6035
 4466WAT     H113800   4.195   1.806   1.280  1.3148 -0.6282 -0.9368
 4466WAT     H213801   4.209   1.656   1.276 -0.8766 -0.8781 -0.6457
 4467WAT      O13802   5.313   1.821   3.330 -0.4824  0.0649  0.4652
 4467WAT     H113803   5.260   1.779   3.398 -1.1583  0.4648  0.1970
 4467WAT     H213804   5.358   1.893   3.376  1.2649 -1.3434  1.0932
 4468WAT      O13805   4.186   7.113   4.943 -0.2015 -0.1831  0.1732
 4468WAT     H113806   4.231   7.196   4.926  0.8225 -0.4291  1.5345
 4468WAT     H213807   4.193   7.100   5.038 -1.9588 -0.9326  0.2475
 4469WAT      O13808   3.310   3.535   5.815 -0.1614  0.3929  0.2082
 4469WAT     H113809   3.358   3.618   5.823  0.3139  0.2405 -0.9660
 4469WAT     H213810   3.366   3.471   5.859  0.3429  0.3583 -0.4825
 4470WAT      O13811   5.780   6.740   2.094  0.1301 -0.3246 -0.5867
 4470WAT     H113812   5.765   6.651   2.061  1.8263 -0.1243 -2.0297
 4470WAT     H213813   5.796   6.728   2.187 -0.1227 -1.4805 -0.6706
 4471WAT      O13814   4.094   2.861   5.973 -0.0492  0.0785  0.1662
 4471WAT     H113815   4.082   2.790   5.909 -0.2915  0.5836 -0.3607
 4471WAT     H213816   4.164   2.830   6.030  0.2192 -0.3593 -0.3844
 4472WAT      O13817   5.717   4.653   1.974 -0.2708 -0.6123 -0.1864
 4472WAT     H113818   5.805   4.637   2.009 -0.4784 -0.7010  0.3095
 4472WAT     H213819   5.729   4.659   1.880  0.5364  1.0324 -0.0141
 4473WAT      O13820   6.024   0.855   1.725 -0.4424 -0.4265  0.1267
 4473WAT     H113821   6.055   0.770   1.756  1.2326  0.0114 -0.2711
 4473WAT     H213822   5.981   0.893   1.801 -0.8958 -1.4682  0.4155
 4474WAT      O13823   3.663   4.528   2.441  0.4305  0.1546 -0.2680
 4474WAT     H113824   3.581   4.479   2.441  1.2570 -1.4977  3.1079
 4474WAT     H213825   3.639   4.615   2.473  0.1222 -0.8822  2.5865
 4475WAT      O13826   6.138   4.190   5.225  0.2114 -0.6069 -0.0396
 4475WAT     H113827   6.203   4.242   5.177  1.2239  0.4414  2.3139
 4475WAT     H213828   6.117   4.243   5.302 -1.9120 -1.8656  0.3328
 4476WAT      O13829   1.492   4.185   1.450  0.4915  0.1209 -0.1168
 4476WAT     H113830   1.465   4.198   1.540  2.5990  1.8127  0.3689
 4476WAT     H213831   1.481   4.271   1.409  0.5847 -0.3501 -1.1755
 4477WAT      O13832   2.011   1.577   0.431  0.2251 -0.1443 -0.0052
 4477WAT     H113833   1.983   1.579   0.339 -0.7942 -1.0088  0.2582
 4477WAT     H213834   2.045   1.664   0.448  1.5411 -0.3120 -1.5401
 4478WAT      O13835   7.159   1.853   2.795 -0.1848 -0.0060 -0.1095
 4478WAT     H113836   7.083   1.832   2.850  0.6492 -2.2564  0.2957
 4478WAT     H213837   7.230   1.868   2.857  0.1177  0.2691 -0.5218
 4479WAT      O13838   4.471   5.872   4.431  0.2439  0.3581 -0.1013
 4479WAT     H113839   4.455   5.855   4.524  0.2532 -0.7552 -0.2918
 4479WAT     H213840   4.566   5.870   4.423  0.3204  1.8751  0.1024
 4480WAT      O13841   2.150   7.076   6.117 -0.1595 -0.5377  0.6715
 4480WAT     H113842   2.136   7.155   6.169 -1.4348 -0.6146  0.4889
 4480WAT     H213843   2.181   7.010   6.179  1.1153  0.1490  0.7858
 4481WAT      O13844   4.762   0.103   2.692 -0.3176  0.1875 -0.3229
 4481WAT     H113845   4.667   0.092   2.694 -0.2816 -0.1869 -0.5104
 4481WAT     H213846   4.776   0.197   2.702 -0.6795  0.1503  0.6634
 4482WAT      O13847   4.142   5.551   0.575  0.3023  0.1333 -0.5350
 4482WAT     H113848   4.206   5.482   0.559 -0.4781 -0.3066 -1.8444
 4482WAT     H213849   4.057   5.507   0.574 -0.0505  0.7220  1.1299
 4483WAT      O13850   2.834   3.998   3.804 -0.2611 -0.3805 -0.2936
 4483WAT     H113851   2.876   4.013   3.719 -1.4495  0.9980 -0.6757
 4483WAT     H213852   2.868   3.914   3.833  0.4155 -0.7313 -1.9898
 4484WAT      O13853   7.088   0.926   5.438  0.2821 -0.2493 -0.2982
 4484WAT     H113854   7.136   0.879   5.506  0.1572  2.3813  1.7912
 4484WAT     H213855   7.028   0.861   5.401  1.1134 -2.0582  1.3618
 4485WAT      O13856   5.110   0.124   5.179  0.8469 -0.1936 -0.1847
 4485WAT     H113857   5.158   0.193   5.133 -1.0111  1.1851 -0.1744
 4485WAT     H213858   5.094   0.058   5.112 -0.1781  0.9237 -1.0856
 4486WAT      O13859   0.087   3.948   0.897  0.0831  0.7262  0.0385
 4486WAT     H113860   0.054   4.005   0.967  1.6054  0.9226  0.6337
 4486WAT     H213861   0.182   3.946   0.910  0.4710  1.1204 -2.3053
 4487WAT      O13862   0.097   5.729   0.221  0.4316 -0.0315 -0.2685
 4487WAT     H113863   0.022   5.747   0.277  0.8103 -2.0649  0.9894
 4487WAT     H213864   0.062   5.671   0.153  0.4635  0.6194 -0.8521
 4488WAT      O13865   2.875   0.301   2.521 -0.2765 -0.1464  0.0745
 4488WAT     H113866   2.783   0.315   2.544  0.0771  2.6004  0.1625
 4488WAT     H213867   2.915   0.269   2.601 -1.3242 -2.6029 -0.2992
 4489WAT      O13868   5.976   2.579   3.580  0.1918  0.4280 -0.7007
 4489WAT     H113869   6.007   2.644   3.643 -1.1415 -0.6564  1.1635
 4489WAT     H213870   5.913   2.526   3.628  1.9439 -2.9486 -1.7725
 4490WAT      O13871   1.330   2.861   1.074 -0.0827 -0.9120  0.0528
 4490WAT     H113872   1.329   2.770   1.047 -2.0260 -1.3618  1.4666
 4490WAT     H213873   1.355   2.859   1.166  0.8304  0.0940 -0.1487
 4491WAT      O13874   3.427   5.750   2.438  0.0020  0.5792 -0.5045
 4491WAT     H113875   3.388   5.693   2.504  2.5134  0.7445  1.2593
 4491WAT     H213876   3.517   5.717   2.427  0.8949  2.9207 -0.9314
 4492WAT      O13877   6.823   5.043   5.297  0.1537  0.0107 -0.5126
 4492WAT     H113878   6.791   4.964   5.342  1.3510 -0.0364  0.3071
 4492WAT     H213879   6.889   5.078   5.356  0.8450  0.6885 -1.6717
 4493WAT      O13880   0.840   1.173   2.605 -0.4777 -0.9172 -0.2342
 4493WAT     H113881   0.810   1.196   2.693 -0.0538 -1.3111  0.0191
 4493WAT     H213882   0.775   1.111   2.572 -1.7978  0.8131 -1.0410
 4494WAT      O13883   2.469   3.654   3.123  0.6189 -0.3646  0.5407
 4494WAT     H113884   2.433   3.739   3.098 -0.1878 -0.4778  1.2610
 4494WAT     H213885   2.513   3.622   3.044  0.4773  0.4867  0.1129
 4495WAT      O13886   1.078   6.720   2.244  0.3197 -0.3419 -0.4345
 4495WAT     H113887   1.017   6.651   2.217 -0.7573  0.1862  0.5342
 4495WAT     H213888   1.159   6.674   2.265 -0.6510 -1.4896  1.0958
 4496WAT      O13889   0.517   6.513   3.842 -0.3418 -0.2482  0.2354
 4496WAT     H113890   0.492   6.526   3.934  1.3302  0.3337  0.6371
 4496WAT     H213891   0.485   6.425   3.821 -1.8472  0.0831  0.9752
 4497WAT      O13892   2.022   6.215   3.728 -0.3157 -0.5668 -0.4704
 4497WAT     H113893   2.108   6.255   3.721 -1.3886  1.6690 -1.9449
 4497WAT     H213894   2.000   6.222   3.822  0.4076  0.4360 -0.3612
 4498WAT      O13895   0.429   5.043   0.546  0.4123  0.0817  0.3506
 4498WAT     H113896   0.403   5.129   0.515 -2.7328 -0.0855  2.0886
 4498WAT     H213897   0.503   5.060   0.605  0.4729  1.4551 -0.0930
 4499WAT      O13898   6.322   3.657   5.159  0.2722 -0.0264  0.2667
 4499WAT     H113899   6.326   3.567   5.192 -1.3701 -0.4300 -0.5350
 4499WAT     H213900   6.261   3.701   5.219  0.3606  0.3166  0.1063
 4500WAT      O13901   4.206   6.637   2.091 -0.1018  0.6024 -1.0934
 4500WAT     H113902   4.123   6.683   2.103 -0.6640 -0.7887  0.8202
 4500WAT     H213903   4.273   6.702   2.114 -0.7969  0.9524  0.0006
 4501WAT      O13904   6.044   3.086   3.066  0.3882 -0.0153 -0.3480
 4501WAT     H113905   6.131   3.125   3.077  0.3737 -0.6088  2.4859
 4501WAT     H213906   6.061   2.996   3.038  0.6502  0.1287 -0.6552
 4502WAT      O13907   5.810   6.110   3.988 -0.1039 -0.0924  0.0630
 4502WAT     H113908   5.812   6.016   3.969 -0.9225 -0.1649  0.2927
 4502WAT     H213909   5.723   6.125   4.025  0.1328  0.7046  0.3136
 4503WAT      O13910   1.676   5.434   2.177  0.4785  0.1807 -0.2663
 4503WAT     H113911   1.746   5.422   2.113  1.5943  0.1609  0.9231
 4503WAT     H213912   1.700   5.376   2.250 -1.1218 -0.3139 -0.1052
 4504WAT      O13913   3.311   6.710   2.201  0.2093  0.5204  0.2777
 4504WAT     H113914   3.341   6.619   2.201  0.8195  0.7155 -0.4593
 4504WAT     H213915   3.311   6.735   2.294  0.8589  0.0293  0.4183
 4505WAT      O13916   1.754   6.684   1.991  0.0560 -0.3060  0.2471
 4505WAT     H113917   1.810   6.649   1.921 -1.6223  0.3437 -1.5332
 4505WAT     H213918   1.788   6.772   2.007  0.9791 -0.7680  0.8875
 4506WAT      O13919   0.098   5.177   2.498 -0.1604  0.3026  0.1691
 4506WAT     H113920   0.147   5.148   2.422  0.6322  0.2895  0.6801
 4506WAT     H213921   0.111   5.108   2.563 -0.3771  0.5800  0.5093
 4507WAT      O13922   3.616   4.788   6.202 -0.5517  0.2060  0.3574
 4507WAT     H113923   3.537   4.740   6.177 -0.6422  1.2286 -1.4377
 4507WAT     H213924   3.623   4.858   6.138  0.6823  1.4044  1.7309
 4508WAT      O13925   6.127   3.659   1.893 -0.4677  0.0314  0.1526
 4508WAT     H113926   6.194   3.674   1.959 -0.9346  0.3688  0.5514
 4508WAT     H213927   6.143   3.727   1.827 -0.8453  0.5566  0.5905
 4509WAT      O13928   6.425   3.125   5.885  0.8330 -0.3234  0.5941
 4509WAT     H113929   6.432   3.214   5.919 -0.3779  0.0342 -0.0242
 4509WAT     H213930   6.400   3.072   5.961 -1.8093  0.4580  0.3620
 4510WAT      O13931   3.854   0.123   1.558 -0.6676 -0.0528  0.0055
 4510WAT     H113932   3.842   0.206   1.604 -0.4713  1.2072 -2.1136
 4510WAT     H213933   3.902   0.146   1.479 -1.5511 -2.0197 -1.1754
 4511WAT      O13934   2.572   6.616   1.264  0.2278 -0.4064 -0.6992
 4511WAT     H113935   2.601   6.696   1.219  0.6671 -0.9728 -1.4361
 4511WAT     H213936   2.563   6.643   1.355  0.7465  0.3952 -0.8677
 4512WAT      O13937   4.527   0.496   3.058 -0.6163 -0.2685  0.2786
 4512WAT     H113938   4.564   0.578   3.090  0.7229 -0.7721  0.0776
 4512WAT     H213939   4.524   0.439   3.135  0.3346 -0.6817  0.0163
 4513WAT      O13940   4.507   0.810   4.811  0.4838 -0.4259 -0.1512
 4513WAT     H113941   4.484   0.903   4.814 -2.9763 -1.1223 -0.9548
 4513WAT     H213942   4.513   0.790   4.718  2.8022 -0.7562  0.0133
 4514WAT      O13943   0.521   4.147   3.533  0.2389  0.3661  0.5719
 4514WAT     H113944   0.444   4.106   3.494  0.0019  1.5740 -0.2989
 4514WAT     H213945   0.490   4.231   3.565  1.0203  0.5053  0.9844
 4515WAT      O13946   5.313   4.185   5.636 -0.2617  0.3049 -0.0393
 4515WAT     H113947   5.231   4.191   5.586 -0.4363 -0.9404  0.0663
 4515WAT     H213948   5.290   4.133   5.713  0.9706 -1.3627 -0.7633
 4516WAT      O13949   0.602   3.514   6.069  0.3595 -0.2740  0.0113
 4516WAT     H113950   0.539   3.584   6.051  0.5709  0.2397  1.1693
 4516WAT     H213951   0.567   3.469   6.145 -0.6837 -2.5937 -1.7326
 4517WAT      O13952   2.303   3.489   4.080 -0.2053  0.4726 -0.4274
 4517WAT     H113953   2.233   3.444   4.126 -0.4315 -0.4799 -1.6478
 4517WAT     H213954   2.355   3.419   4.040  1.7329  1.1099  0.7748
 4518WAT      O13955   7.299   2.195   0.695  0.5931 -0.5057 -0.2982
 4518WAT     H113956   7.380   2.172   0.649  0.8847 -2.0786  0.9342
 4518WAT     H213957   7.328   2.219   0.783 -0.2467 -0.6979  0.0323
 4519WAT      O13958   2.725   1.280   4.077 -0.3747 -0.2261  0.0084
 4519WAT     H113959   2.685   1.194   4.084 -1.0051  0.1098  0.5694
 4519WAT     H213960   2.659   1.341   4.110 -0.0336  0.5028 -0.6059
 4520WAT      O13961   3.551   3.157   1.770  0.5376 -0.6713  0.4066
 4520WAT     H113962   3.478   3.095   1.762  1.5235 -2.0865  1.7737
 4520WAT     H213963   3.541   3.215   1.694 -0.7089 -2.2125 -0.6948
 4521WAT      O13964   2.125   5.409   4.667 -0.0184  0.6572  0.1814
 4521WAT     H113965   2.060   5.477   4.653 -0.6377  0.2117  0.8137
 4521WAT     H213966   2.143   5.412   4.761  0.9978  0.8774 -0.0067
 4522WAT      O13967   5.002   5.902   4.640 -0.3404 -0.0876 -0.0721
 4522WAT     H113968   5.000   5.986   4.593 -0.1432 -1.4288 -2.6868
 4522WAT     H213969   4.945   5.845   4.589  1.2028 -2.1371  0.3622
 4523WAT      O13970   7.147   0.311   3.425 -0.4082 -0.5644  0.0638
 4523WAT     H113971   7.087   0.237   3.418  0.5763 -1.4088  0.2208
 4523WAT     H213972   7.187   0.300   3.512 -0.2176  0.1373  0.0699
 4524WAT      O13973   4.705   7.089   2.364  0.5405  0.5810  0.4965
 4524WAT     H113974   4.619   7.127   2.351  0.0808  0.1795  2.2021
 4524WAT     H213975   4.733   7.119   2.451  0.8399 -1.6265  1.2270
 4525WAT      O13976   2.531   2.309   4.164  0.2757  0.1145 -0.5523
 4525WAT     H113977   2.551   2.267   4.080 -3.8500  1.1425 -2.2896
 4525WAT     H213978   2.596   2.379   4.172  3.0213 -2.1868 -0.9383
 4526WAT      O13979   3.959   4.832   4.299 -0.6185 -0.2752  0.1360
 4526WAT     H113980   3.961   4.813   4.392 -2.0152 -1.4625 -0.0393
 4526WAT     H213981   4.015   4.765   4.260  1.1209  1.0823  0.2137
 4527WAT      O13982   3.460   5.775   4.928  0.0064 -0.2913 -0.5156
 4527WAT     H113983   3.453   5.745   5.018 -1.2269 -1.0397 -0.8420
 4527WAT     H213984   3.379   5.747   4.886  0.2881  0.5740 -1.7099
 4528WAT      O13985   5.750   6.551   1.475 -0.3028 -0.3543 -0.0610
 4528WAT     H113986   5.748   6.639   1.513 -0.0269 -0.4949  0.2858
 4528WAT     H213987   5.692   6.557   1.399 -0.0649  0.2034 -0.2073
 4529WAT      O13988   5.482   5.159   5.345 -0.7966 -0.3339 -0.2076
 4529WAT     H113989   5.551   5.217   5.378 -1.1166 -1.6330  3.0685
 4529WAT     H213990   5.401   5.208   5.357 -0.9726 -1.0068  1.7040
 4530WAT      O13991   6.847   5.285   0.663  0.0263 -0.2035 -0.9789
 4530WAT     H113992   6.803   5.256   0.743  1.2303 -2.4316 -1.0263
 4530WAT     H213993   6.940   5.285   0.686  0.3543 -0.4526 -2.2541
 4531WAT      O13994   5.680   2.846   6.065  0.0139 -0.3061  0.4477
 4531WAT     H113995   5.613   2.802   6.012  1.7210 -0.9922 -1.2602
 4531WAT     H213996   5.693   2.787   6.139 -1.0039 -0.3427  0.6112
 4532WAT      O13997   2.800   1.784   2.450  0.1749  0.7309 -0.4851
 4532WAT     H113998   2.872   1.727   2.422  0.2608  0.4527  0.2647
 4532WAT     H213999   2.726   1.725   2.461  0.4413  0.6200  0.9629
 4533WAT      O14000   6.893   4.810   4.968  0.2068 -1.1722  0.8310
 4533WAT     H114001   6.875   4.717   4.985  1.1320 -0.9935  3.1347
 4533WAT     H214002   6.954   4.835   5.037 -0.7692  1.4040  0.8518
 4534WAT      O14003   0.020   6.694   3.364  0.2832  0.3299 -0.2654
 4534WAT     H114004  -0.059   6.697   3.419 -0.2936  0.1110 -1.0543
 4534WAT     H214005   0.004   6.620   3.305  0.7095  0.7963 -0.9812
 4535WAT      O14006   6.594   5.096   1.648 -0.3269  0.3974 -0.1764
 4535WAT     H114007   6.654   5.135   1.585 -0.7107  1.1759 -0.0666
 4535WAT     H214008   6.643   5.094   1.730 -0.6329  1.5365  0.0420
 4536WAT      O14009   5.614   3.987   0.435  0.2093  0.0354 -0.2126
 4536WAT     H114010   5.688   3.989   0.496  0.7305 -0.5815 -0.8097
 4536WAT     H214011   5.539   3.965   0.489  0.5588  0.0995  0.3076
 4537WAT      O14012   5.095   3.433   2.417 -0.1423 -0.0674 -0.0695
 4537WAT     H114013   5.000   3.445   2.421  0.0825  1.5079  2.4581
 4537WAT     H214014   5.117   3.387   2.497  1.5184  2.4198  1.0289
 4538WAT      O14015   4.177   1.198   2.269  0.0722 -0.1829  0.0021
 4538WAT     H114016   4.213   1.285   2.286  0.0445 -0.4839  1.8386
 4538WAT     H214017   4.083   1.212   2.258  0.1383  0.0759 -0.2478
 4539WAT      O14018   0.171   2.256   2.245 -0.1999  0.3721  0.1464
 4539WAT     H114019   0.244   2.266   2.306 -1.7091  1.3980  1.8798
 4539WAT     H214020   0.098   2.224   2.299 -0.8693 -1.4834 -1.6802
 4540WAT      O14021   0.404   3.430   0.864 -0.0856  0.2953 -0.1317
 4540WAT     H114022   0.403   3.416   0.959  1.7603 -0.2021 -0.1563
 4540WAT     H214023   0.335   3.373   0.831  0.3104 -0.7382  0.7666
 4541WAT      O14024   0.584   1.782   0.780  0.3788 -0.6269  0.5998
 4541WAT     H114025   0.600   1.866   0.822  0.6126  0.1587 -0.9754
 4541WAT     H214026   0.508   1.745   0.826 -0.0795  0.7140  0.9469
 4542WAT      O14027   1.425   6.244   0.260  0.0519 -0.2194 -0.1488
 4542WAT     H114028   1.347   6.190   0.250 -1.7660  2.2420 -0.2494
 4542WAT     H214029   1.481   6.194   0.319 -1.5177 -2.1462 -0.1788
 4543WAT      O14030   5.431   1.700   1.793 -0.0088 -0.4423 -0.0320
 4543WAT     H114031   5.516   1.661   1.812 -0.1610 -1.3619 -1.1418
 4543WAT     H214032   5.377   1.676   1.869  0.5783 -0.2322  0.4675
 4544WAT      O14033   2.800   2.595   5.279 -0.0893 -0.0658  0.6633
 4544WAT     H114034   2.865   2.547   5.331 -1.4791 -0.1573  2.4238
 4544WAT     H214035   2.752   2.527   5.232  1.4718  0.0477 -1.1805
 4545WAT      O14036   3.063   1.547   5.777  0.3552 -0.3193 -0.0674
 4545WAT     H114037   3.099   1.537   5.865  0.6136 -1.7486 -0.3057
 4545WAT     H214038   3.024   1.462   5.758  0.5841 -0.1341 -1.4528
 4546WAT      O14039   7.554   0.172   1.074 -0.1979  0.0659  0.0541
 4546WAT     H114040   7.593   0.179   1.161 -1.7849 -0.4024  0.8536
 4546WAT     H214041   7.471   0.219   1.081  0.5864  1.8750 -1.8523
 4547WAT      O14042   5.409   5.217   2.023  1.0431 -0.5090 -0.2824
 4547WAT     H114043   5.489   5.269   2.009  1.0748 -0.6827 -0.7492
 4547WAT     H214044   5.365   5.261   2.096  0.6875  0.6368 -1.1579
 4548WAT      O14045   4.322   3.738   5.545 -0.2777 -0.1938  0.7660
 4548WAT     H114046   4.355   3.666   5.492  0.2293  0.8724 -0.4047
 4548WAT     H214047   4.243   3.768   5.499  1.3273  2.1224 -0.6880
 4549WAT      O14048   1.628   5.015   0.363  0.4611  0.0874 -0.3458
 4549WAT     H114049   1.683   5.062   0.425 -1.4175  1.4216  0.4047
 4549WAT     H214050   1.592   4.942   0.414  1.9832 -1.1718 -1.0154
 4550WAT      O14051   2.907   1.023   1.584  0.2565  0.2063  0.2444
 4550WAT     H114052   2.918   1.031   1.679 -0.5856 -2.9435  0.7208
 4550WAT     H214053   2.994   1.038   1.548  1.0371 -0.5520  1.7164
 4551WAT      O14054   2.163   3.382   5.062  0.2551  0.2287 -0.3296
 4551WAT     H114055   2.238   3.383   5.121 -0.2194  0.7040  0.2910
 4551WAT     H214056   2.177   3.306   5.005  1.7051  0.8965 -0.9015
 4552WAT      O14057   0.617   1.738   2.107  0.5696 -0.3758 -0.8423
 4552WAT     H114058   0.600   1.686   2.186  0.3436  2.3391  1.0312
 4552WAT     H214059   0.711   1.757   2.110  0.2952  0.9935 -0.3518
 4553WAT      O14060   1.571   3.543   2.012 -0.1851 -0.0649  0.1782
 4553WAT     H114061   1.551   3.583   1.927 -2.1791  0.1938  0.7115
 4553WAT     H214062   1.622   3.609   2.058  1.1089 -0.2880 -0.8556
 4554WAT      O14063   3.406   3.375   0.921 -0.4023  0.1546 -0.0418
 4554WAT     H114064   3.331   3.420   0.960 -0.9324 -1.9760  1.6124
 4554WAT     H214065   3.463   3.355   0.995  1.1620  0.5307 -1.1007
 4555WAT      O14066   7.243   1.702   1.308  0.3762 -0.6763  0.6292
 4555WAT     H114067   7.151   1.708   1.281  0.2064 -0.5066  1.2471
 4555WAT     H214068   7.291   1.747   1.238  0.0475 -1.2491  0.0196
 4556WAT      O14069   0.188   0.363   4.459 -0.0677  0.1379  0.2753
 4556WAT     H114070   0.140   0.325   4.532 -0.8860 -0.8410 -0.7257
 4556WAT     H214071   0.194   0.291   4.395  1.5812  0.6376 -0.1670
 4557WAT      O14072   3.464   5.512   5.590 -0.1841 -0.0062 -0.3118
 4557WAT     H114073   3.387   5.568   5.601 -0.5057 -0.7733  1.9163
 4557WAT     H214074   3.431   5.423   5.604  0.9602 -0.4128 -0.1042
 4558WAT      O14075   6.841   4.888   1.460 -0.4574 -0.6261  0.2687
 4558WAT     H114076   6.860   4.936   1.540 -0.4334 -0.4098  0.1343
 4558WAT     H214077   6.820   4.956   1.395  0.5638 -0.7213 -0.1879
 4559WAT      O14078   7.029   2.126   4.160  0.2854 -0.4836  0.2556
 4559WAT     H114079   7.049   2.199   4.217  0.8849  0.9647 -1.7039
 4559WAT     H214080   6.968   2.162   4.095 -0.5771 -2.1265  0.0941
 4560WAT      O14081   1.995   4.284   2.991 -0.0254  0.1361 -0.0329
 4560WAT     H114082   1.916   4.289   3.044 -0.0282  0.6127 -0.0805
 4560WAT     H214083   2.065   4.266   3.053 -0.5571 -3.8150 -0.2789
 4561WAT      O14084   3.701   5.008   3.994 -0.7497  0.2140 -0.6330
 4561WAT     H114085   3.653   4.996   4.076 -1.2348 -0.5664 -1.0226
 4561WAT     H214086   3.761   5.080   4.012 -0.9024  0.1015  0.3870
 4562WAT      O14087   6.174   3.368   0.200 -0.2534  0.1530  0.0127
 4562WAT     H114088   6.130   3.451   0.184  0.3007  0.6113  0.8107
 4562WAT     H214089   6.265   3.384   0.178 -0.0430 -0.0831  0.6734
 4563WAT      O14090   5.266   3.657   0.335 -0.3064  0.0633 -0.2824
 4563WAT     H114091   5.194   3.618   0.285  0.8126 -2.7063  0.1015
 4563WAT     H214092   5.223   3.719   0.394 -2.4374 -1.6531  0.0944
 4564WAT      O14093   6.221   5.444   1.300  0.1333  0.3519  0.4340
 4564WAT     H114094   6.151   5.428   1.237 -1.1684  0.0900  1.9004
 4564WAT     H214095   6.184   5.419   1.385  1.9928  0.2383  1.2639
 4565WAT      O14096   1.753   0.822   2.468  0.0750  0.2588 -0.0606
 4565WAT     H114097   1.675   0.812   2.413 -0.9931 -1.6941  1.6553
 4565WAT     H214098   1.727   0.886   2.534 -0.2739 -0.7306  0.7819
 4566WAT      O14099   6.718   1.798   5.335  0.0757 -0.0487 -0.1376
 4566WAT     H114100   6.661   1.739   5.286  0.2029 -1.1184  0.9616
 4566WAT     H214101   6.676   1.807   5.420 -0.4192  2.2066 -0.5629
 4567WAT      O14102   7.370   1.809   5.373 -0.2997 -0.1453 -0.7531
 4567WAT     H114103   7.435   1.802   5.304  0.3969 -0.7717 -0.0481
 4567WAT     H214104   7.316   1.884   5.348  1.5282  1.2567 -0.6541
 4568WAT      O14105   2.911   4.450   3.648  0.8147 -0.4882  0.0893
 4568WAT     H114106   2.878   4.367   3.682 -0.3056 -0.5327 -1.0362
 4568WAT     H214107   2.838   4.511   3.660  1.9699  0.6293  1.8529
 4569WAT      O14108   3.468   0.733   2.598  0.7131  0.3764  0.4940
 4569WAT     H114109   3.440   0.678   2.525  1.9851 -2.0336  1.7125
 4569WAT     H214110   3.445   0.822   2.571  0.0793 -0.5355 -2.2992
 4570WAT      O14111   0.790   6.996   0.166 -0.0704  0.6859 -0.1301
 4570WAT     H114112   0.752   7.039   0.242  0.8965  0.8151  0.2900
 4570WAT     H214113   0.730   7.017   0.094 -0.6249  1.1287  0.4582
 4571WAT      O14114   2.194   1.187   5.733  0.1171  0.3043 -0.2955
 4571WAT     H114115   2.140   1.252   5.778  1.0184  0.1893  1.0214
 4571WAT     H214116   2.174   1.199   5.640  0.5044  2.7233 -0.1451
 4572WAT      O14117   2.793   6.496   3.867  0.0889  0.1245  0.7869
 4572WAT     H114118   2.805   6.548   3.946  1.3984 -0.1054  0.7695
 4572WAT     H214119   2.841   6.415   3.884 -1.9085 -1.1143  0.8091
 4573WAT      O14120   2.230   1.637   5.398  0.0190  0.2670  0.2231
 4573WAT     H114121   2.266   1.595   5.476  0.2581 -0.0232 -0.0407
 4573WAT     H214122   2.306   1.651   5.341 -0.0107  1.2983  0.4124
 4574WAT      O14123   2.291   6.247   3.857  0.5159 -0.1468 -0.1832
 4574WAT     H114124   2.319   6.263   3.767  0.5724  0.1477 -0.1150
 4574WAT     H214125   2.366   6.275   3.910  0.5608 -0.5097 -0.0529
 4575WAT      O14126   6.855   4.366   3.438 -0.2209 -0.4913  0.1344
 4575WAT     H114127   6.790   4.313   3.392 -1.3060  0.2920  0.7232
 4575WAT     H214128   6.922   4.383   3.373 -0.4782 -1.5231 -0.4194
 4576WAT      O14129   6.638   4.471   1.521  0.1799 -0.0483  0.0418
 4576WAT     H114130   6.647   4.560   1.555 -0.6457 -0.9851  2.9568
 4576WAT     H214131   6.557   4.473   1.470 -0.1510  0.7408  0.5793
 4577WAT      O14132   0.173   3.896   5.221  0.0477  0.0786  0.0161
 4577WAT     H114133   0.135   3.982   5.201 -2.1072 -0.9938 -0.9313
 4577WAT     H214134   0.226   3.875   5.145  0.2037  0.3539  0.0452
 4578WAT      O14135   5.512   4.475   4.409 -0.3713  0.4620  0.1326
 4578WAT     H114136   5.605   4.475   4.429 -0.1966 -0.6474 -0.6026
 4578WAT     H214137   5.469   4.495   4.492  0.5223  1.5527  0.3571
 4579WAT      O14138   3.561   2.299   1.805 -0.0942  0.5401 -0.1697
 4579WAT     H114139   3.645   2.254   1.806 -0.7500 -0.7672 -1.0272
 4579WAT     H214140   3.582   2.388   1.777  0.9079 -0.0475 -1.3976
 4580WAT      O14141   5.456   4.211   2.358 -0.9055  0.4740  0.8400
 4580WAT     H114142   5.477   4.211   2.451  0.0690  0.0341  0.6346
 4580WAT     H214143   5.472   4.121   2.330  0.8435  1.0315 -0.1682
 4581WAT      O14144   0.702   4.260   0.964 -0.0670 -0.1415  0.6708
 4581WAT     H114145   0.688   4.262   0.869 -0.3638 -1.1698  0.6828
 4581WAT     H214146   0.662   4.342   0.995 -0.6175 -0.1423 -0.0048
 4582WAT      O14147   0.499   6.239   4.507 -0.3913 -0.7069  0.3536
 4582WAT     H114148   0.529   6.182   4.437 -0.7862  1.0786 -1.3681
 4582WAT     H214149   0.478   6.180   4.579  1.8125 -2.4626 -0.3472
 4583WAT      O14150   1.220   4.885   4.496  0.8600  0.2054 -0.9105
 4583WAT     H114151   1.157   4.813   4.498 -0.2159  1.1064  1.5744
 4583WAT     H214152   1.166   4.964   4.497  1.9526  1.0080  1.7388
 4584WAT      O14153   2.215   2.569   0.913 -0.3049  0.1220  0.7300
 4584WAT     H114154   2.299   2.590   0.874 -0.0950 -0.3424  0.9167
 4584WAT     H214155   2.236   2.540   1.002 -0.6956  0.3551  0.9024
 4585WAT      O14156   1.385   5.658   5.027  0.3786  1.1539 -0.3936
 4585WAT     H114157   1.366   5.746   5.058  0.5733  0.9525  0.3131
 4585WAT     H214158   1.472   5.638   5.062  0.6471  0.9535 -1.1550
 4586WAT      O14159   5.596   0.967   3.720  0.2982 -0.0602  0.2254
 4586WAT     H114160   5.673   0.957   3.775  0.7540  0.6658 -0.2588
 4586WAT     H214161   5.524   0.983   3.781  0.6255 -0.1982  0.6502
 4587WAT      O14162   6.819   5.386   1.661  0.2368  0.4170  0.2297
 4587WAT     H114163   6.892   5.381   1.722 -0.0630 -1.8308  0.4889
 4587WAT     H214164   6.748   5.428   1.710  0.7356  0.8154  0.6152
 4588WAT      O14165   7.298   7.152   0.721 -0.1614  0.0891 -0.2526
 4588WAT     H114166   7.384   7.118   0.696 -0.8285 -1.3576 -0.6825
 4588WAT     H214167   7.302   7.160   0.816  1.3268  2.6152 -0.4311
 4589WAT      O14168   1.561   5.260   3.866 -0.1842 -0.9894  0.3365
 4589WAT     H114169   1.559   5.181   3.920 -1.2918  0.3523  2.3899
 4589WAT     H214170   1.512   5.236   3.787 -1.0620 -2.1666  1.2062
 4590WAT      O14171   0.373   3.671   5.868  0.0843 -0.0227  0.3634
 4590WAT     H114172   0.381   3.581   5.836 -0.2654 -0.3370  1.1441
 4590WAT     H214173   0.410   3.725   5.797  0.2637 -0.7716 -0.1237
 4591WAT      O14174   3.336   5.864   5.234 -0.5010 -0.0296 -0.2508
 4591WAT     H114175   3.318   5.772   5.216  0.9132  0.0079 -2.2026
 4591WAT     H214176   3.253   5.908   5.222 -1.2921 -1.0491  1.0981
 4592WAT      O14177   6.560   3.575   5.743 -0.1595 -0.4162 -0.1033
 4592WAT     H114178   6.483   3.630   5.758 -0.6468 -0.3437 -2.4798
 4592WAT     H214179   6.634   3.635   5.746 -0.3198 -0.2603  0.8963
 4593WAT      O14180   5.636   0.815   1.849  0.2437 -0.6114 -0.1225
 4593WAT     H114181   5.722   0.825   1.891 -0.0189 -1.2190  0.5845
 4593WAT     H214182   5.616   0.902   1.814  0.5830 -0.1421  0.8194
 4594WAT      O14183   2.250   7.004   4.957  0.2681  0.3488  0.4740
 4594WAT     H114184   2.186   6.960   4.901  0.4546 -1.4346  1.5854
 4594WAT     H214185   2.335   6.973   4.925  0.3532 -1.4158  2.2179
 4595WAT      O14186   6.703   6.036   4.612  0.1363 -0.3381 -0.5594
 4595WAT     H114187   6.790   6.071   4.632 -0.0562  0.2688 -0.7669
 4595WAT     H214188   6.642   6.102   4.646 -0.2218 -0.1170 -1.5838
 4596WAT      O14189   6.426   0.702   3.325  0.0012 -0.9350  0.3689
 4596WAT     H114190   6.392   0.615   3.346 -0.7041 -0.2998  2.0471
 4596WAT     H214191   6.428   0.748   3.409  0.6671  0.5753 -0.4284
 4597WAT      O14192   5.175   6.121   2.446  0.0451  0.3532 -0.8248
 4597WAT     H114193   5.125   6.168   2.513  0.8354 -0.8001  0.6315
 4597WAT     H214194   5.163   6.028   2.468  1.8209  0.0180 -1.1552
 4598WAT      O14195   0.383   6.325   5.974  0.3749 -0.5602 -0.0416
 4598WAT     H114196   0.424   6.269   5.909 -0.0131 -1.0670  0.1420
 4598WAT     H214197   0.419   6.295   6.058 -0.6459 -1.2753  0.1571
 4599WAT      O14198   4.260   0.828   2.663 -0.7550 -0.2167 -0.0492
 4599WAT     H114199   4.187   0.858   2.609 -0.3983  0.1059 -0.3601
 4599WAT     H214200   4.261   0.888   2.738 -1.6233 -1.0320  0.6386
 4600WAT      O14201   4.998   3.033   3.688 -0.2004  0.2424  0.2257
 4600WAT     H114202   5.087   3.046   3.655  1.1642 -1.0008  3.0554
 4600WAT     H214203   5.010   3.000   3.777 -3.5123 -1.2165  0.2840
 4601WAT      O14204   7.027   6.995   0.702 -0.2666  0.0067 -0.1240
 4601WAT     H114205   7.000   7.074   0.655 -1.0978  2.4588  3.9628
 4601WAT     H214206   7.122   7.001   0.706 -0.3440  0.9878  0.4097
 4602WAT      O14207   1.497   2.408   5.432 -0.3064 -0.6219 -0.2063
 4602WAT     H114208   1.570   2.372   5.484  1.0391  3.6709  1.3121
 4602WAT     H214209   1.421   2.401   5.490  0.7395  2.1399  1.6886
 4603WAT      O14210   0.305   0.177   3.596 -0.3002  0.3680 -0.1914
 4603WAT     H114211   0.389   0.183   3.641 -0.0664  0.3653 -0.6136
 4603WAT     H214212   0.240   0.171   3.665 -0.0362  1.3711  0.1591
 4604WAT      O14213   7.426   5.344   4.595 -0.1681 -0.6172 -0.2882
 4604WAT     H114214   7.344   5.387   4.569  0.1792 -0.0645 -0.4863
 4604WAT     H214215   7.401   5.285   4.666 -1.1880 -2.3215 -1.9929
 4605WAT      O14216   5.070   2.160   3.335  0.2141  0.0811 -0.0839
 4605WAT     H114217   5.073   2.231   3.271  0.9378  1.3801  1.3520
 4605WAT     H214218   5.162   2.134   3.347 -0.0536 -1.3333 -0.7960
 4606WAT      O14219   4.831   6.429   0.950 -0.7768 -0.1927 -0.2779
 4606WAT     H114220   4.888   6.506   0.944 -0.8051  0.2234  2.8435
 4606WAT     H214221   4.743   6.463   0.943 -0.7505 -0.1149 -0.2316
 4607WAT      O14222   7.431   4.776   5.548 -0.6445 -0.4281 -0.0162
 4607WAT     H114223   7.346   4.806   5.578 -0.1332 -0.1274  1.1593
 4607WAT     H214224   7.489   4.852   5.558 -0.0904 -0.8159 -0.1944
 4608WAT      O14225   5.129   2.886   0.500 -0.0624 -0.5090  0.2418
 4608WAT     H114226   5.122   2.869   0.594 -0.5108 -1.2498  0.0830
 4608WAT     H214227   5.143   2.800   0.460 -0.4097 -0.2763 -0.4141
 4609WAT      O14228   5.270   5.108   3.408  0.3337  0.0181 -0.0890
 4609WAT     H114229   5.304   5.176   3.466  2.0857 -0.2081 -0.7971
 4609WAT     H214230   5.294   5.026   3.450 -1.6161 -0.2273  0.6695
 4610WAT      O14231   3.564   2.301   0.262 -0.0200  0.0357  0.0729
 4610WAT     H114232   3.616   2.303   0.342  0.7838  0.0834 -0.4410
 4610WAT     H214233   3.531   2.390   0.253  1.9333  0.7029 -0.9512
 4611WAT      O14234   2.763   4.717   0.014  0.7128 -0.2256 -0.3738
 4611WAT     H114235   2.671   4.690   0.014  0.3031  1.0890 -0.5927
 4611WAT     H214236   2.772   4.774  -0.063  1.7259 -0.3695 -0.3821
 4612WAT      O14237   0.884   4.627   1.661  0.1325  0.2444  0.5029
 4612WAT     H114238   0.850   4.540   1.684 -0.3786  0.3654  0.2278
 4612WAT     H214239   0.963   4.637   1.715 -0.2025 -0.0966  1.0707
 4613WAT      O14240   6.900   0.622   0.263  0.5262 -0.2309 -0.2091
 4613WAT     H114241   6.886   0.698   0.320  2.2887 -1.0700  1.4481
 4613WAT     H214242   6.976   0.578   0.300  1.0281 -1.5005 -2.5732
 4614WAT      O14243   5.744   5.536   1.709 -0.0547  0.2712  0.0245
 4614WAT     H114244   5.780   5.624   1.716 -0.4814  0.5523 -1.1216
 4614WAT     H214245   5.702   5.521   1.794  2.4486  0.0208  1.2983
 4615WAT      O14246   4.563   3.880   4.750  0.0554 -0.2281  0.1581
 4615WAT     H114247   4.636   3.875   4.812  0.8638  1.4248 -0.5912
 4615WAT     H214248   4.485   3.883   4.805  0.6813 -0.0233  1.0648
 4616WAT      O14249   3.276   0.561   5.781  0.4379  0.2197  0.5699
 4616WAT     H114250   3.287   0.635   5.722  0.8171 -0.3013 -0.0187
 4616WAT     H214251   3.365   0.528   5.796  0.2943  0.0101  0.9937
 4617WAT      O14252   3.975   1.481   1.703 -0.5365 -0.1269 -0.5976
 4617WAT     H114253   3.995   1.389   1.686 -0.9210 -0.4773  0.7064
 4617WAT     H214254   3.894   1.478   1.754  1.0847  0.7168  2.1995
 4618WAT      O14255   6.254   2.919   3.692 -0.4353  0.7438  0.2055
 4618WAT     H114256   6.227   2.827   3.688  2.0541 -0.0090 -1.4417
 4618WAT     H214257   6.344   2.917   3.722 -1.1494  2.9530  2.9346
 4619WAT      O14258   0.468   6.268   0.345  0.5658  0.1106  0.3279
 4619WAT     H114259   0.510   6.217   0.415 -0.5284  0.4416  1.2788
 4619WAT     H214260   0.538   6.322   0.308  1.1805 -0.0810  1.1776
 4620WAT      O14261   2.429   4.683   4.264 -0.6470 -0.1274  0.0525
 4620WAT     H114262   2.384   4.671   4.347 -1.5031 -0.6520 -0.4659
 4620WAT     H214263   2.522   4.687   4.287 -0.9814  3.3242  1.4352
 4621WAT      O14264   1.850   0.652   0.735  0.4694 -0.6226  0.6976
 4621WAT     H114265   1.825   0.569   0.776 -0.7559 -0.5440  0.1468
 4621WAT     H214266   1.807   0.719   0.787  1.0293 -0.3583  0.8260
 4622WAT      O14267   3.560   5.606   1.544  0.0409  0.1599  0.3420
 4622WAT     H114268   3.553   5.541   1.614 -1.0089 -1.7569 -1.4285
 4622WAT     H214269   3.474   5.606   1.502  0.5604  1.4232 -0.8216
 4623WAT      O14270   5.038   2.035   2.010 -0.1685 -0.2414  0.2420
 4623WAT     H114271   5.028   1.946   2.045 -0.8979 -0.2122  0.1237
 4623WAT     H214272   4.952   2.055   1.973 -0.0705  0.6062  0.4705
 4624WAT      O14273   4.606   3.854   1.806 -0.2800  0.5261  0.3988
 4624WAT     H114274   4.614   3.949   1.799  0.7482  0.4296  0.0910
 4624WAT     H214275   4.535   3.840   1.868  0.4037  1.5145  1.4318
 4625WAT      O14276   7.089   2.286   4.399 -0.3951  0.4750 -0.1834
 4625WAT     H114277   7.098   2.376   4.428  2.0418 -0.1316  1.1537
 4625WAT     H214278   7.087   2.234   4.480  0.3265 -0.8205 -0.9610
 4626WAT      O14279   1.709   7.136   1.957  0.2569  0.2284  0.4999
 4626WAT     H114280   1.740   7.201   2.020  0.9971  0.3394  0.0248
 4626WAT     H214281   1.684   7.188   1.880 -1.4268  0.1857  0.9616
 4627WAT      O14282   4.691   2.407   3.362  0.2590 -0.4390  0.6863
 4627WAT     H114283   4.597   2.415   3.379  0.2070 -2.3815  1.5630
 4627WAT     H214284   4.732   2.425   3.447  0.5889 -0.8719  0.6203
 4628WAT      O14285   5.134   4.511   5.878  0.2056  0.0074 -0.2199
 4628WAT     H114286   5.208   4.450   5.875  0.6704  0.5162  0.5258
 4628WAT     H214287   5.083   4.482   5.953  0.0662  0.1217 -0.2715
 4629WAT      O14288   7.124   1.706   0.151 -0.0270 -0.5295 -0.1652
 4629WAT     H114289   7.094   1.627   0.195 -0.2369 -1.1110 -1.3023
 4629WAT     H214290   7.194   1.741   0.206  1.1140 -2.3430 -0.4105
 4630WAT      O14291   2.674   2.007   3.731 -0.2167  0.5558  0.1232
 4630WAT     H114292   2.726   2.063   3.673 -1.1442  0.6690 -0.6136
 4630WAT     H214293   2.722   1.924   3.732  0.1980  0.7839 -0.2143
 4631WAT      O14294   6.389   4.470   4.367  0.1995  0.3164  0.2498
 4631WAT     H114295   6.435   4.435   4.443 -1.0534 -1.5668  0.2084
 4631WAT     H214296   6.437   4.550   4.344  2.1813 -0.4767  1.4030
 4632WAT      O14297   0.152   4.507   2.462 -0.1668 -0.3010 -0.7107
 4632WAT     H114298   0.127   4.437   2.522  1.7929  0.4141  1.0439
 4632WAT     H214299   0.238   4.480   2.429 -0.7735 -0.1933 -2.4803
 4633WAT      O14300   1.701   6.248   1.303  0.0038  0.4543 -0.1043
 4633WAT     H114301   1.764   6.319   1.311  0.4510  0.1642 -0.8996
 4633WAT     H214302   1.635   6.266   1.370  0.1540  1.5650 -0.2414
 4634WAT      O14303   4.602   2.532   6.241 -0.3550  0.0537  0.0399
 4634WAT     H114304   4.689   2.521   6.280 -0.5538  1.3706  0.9302
 4634WAT     H214305   4.582   2.625   6.253 -1.1983  0.1218 -1.6391
 4635WAT      O14306   7.155   7.055  -0.001 -0.1575 -0.2345 -0.6614
 4635WAT     H114307   7.143   6.964   0.025  0.7616 -0.0169  0.6892
 4635WAT     H214308   7.143   7.105   0.081 -0.4485  0.8361 -1.3321
 4636WAT      O14309   3.530   3.236   0.104 -0.7775 -0.1356  0.3289
 4636WAT     H114310   3.579   3.164   0.143 -0.3639 -1.1739 -1.9111
 4636WAT     H214311   3.483   3.196   0.031 -0.3847  1.8527 -1.1089
 4637WAT      O14312   0.291   5.124   1.650  0.2290 -0.0847  0.2212
 4637WAT     H114313   0.243   5.041   1.640  0.2994 -0.1683  0.5697
 4637WAT     H214314   0.382   5.097   1.662  0.2646  0.0471  0.2435
 4638WAT      O14315   5.031   1.078   4.292  0.2162  0.2684 -0.3495
 4638WAT     H114316   5.001   1.159   4.333  0.1302  1.0194 -1.8562
 4638WAT     H214317   4.952   1.027   4.277  0.2086  0.1631  0.0315
 4639WAT      O14318   4.864   5.680   3.600  0.2931 -0.1690 -0.7404
 4639WAT     H114319   4.846   5.613   3.534 -0.1222  2.7014 -3.7885
 4639WAT     H214320   4.781   5.689   3.647  0.0475 -1.0606 -0.9709
 4640WAT      O14321   1.012   5.818   0.033  0.0709 -0.3762  0.0053
 4640WAT     H114322   1.050   5.730   0.029  3.6501  1.0467 -1.2831
 4640WAT     H214323   1.020   5.844   0.125  0.1675 -0.9347  0.1564
 4641WAT      O14324   6.654   0.924   4.479 -0.5193  0.1103  0.1497
 4641WAT     H114325   6.645   0.921   4.575  0.3142 -1.1177  0.2164
 4641WAT     H214326   6.742   0.957   4.464 -0.4429 -0.2356 -0.1751
 4642WAT      O14327   5.518   6.526   5.642  0.2858  0.1794  0.0972
 4642WAT     H114328   5.503   6.571   5.559  2.6372  0.1773 -0.4152
 4642WAT     H214329   5.446   6.464   5.649 -2.1565  2.7772  0.0106
 4643WAT      O14330   1.930   4.142   1.454 -0.4417 -0.3046 -0.1550
 4643WAT     H114331   1.955   4.051   1.438 -0.8518 -0.2725 -1.0492
 4643WAT     H214332   1.867   4.137   1.526 -1.5177 -0.8842 -1.1028
 4644WAT      O14333   4.601   6.451   1.157 -0.4239  0.1844  0.1391
 4644WAT     H114334   4.612   6.363   1.121  1.0380  0.3323  0.1473
 4644WAT     H214335   4.574   6.437   1.248  1.9967 -0.3379  0.8382
 4645WAT      O14336   5.921   5.367   5.807 -0.2058 -0.3061  0.3431
 4645WAT     H114337   5.885   5.302   5.868  1.4713 -1.4978  0.1580
 4645WAT     H214338   5.955   5.436   5.863 -0.5226 -0.3922  0.6473
 4646WAT      O14339   2.947   2.610   5.949  0.4551 -0.5712 -0.3433
 4646WAT     H114340   2.879   2.655   5.999  0.5644  0.2697 -0.9230
 4646WAT     H214341   2.929   2.517   5.961  0.6754 -0.4093  1.5179
 4647WAT      O14342   0.599   2.538   2.291 -0.5442 -0.1936  0.3738
 4647WAT     H114343   0.556   2.463   2.332  1.3231 -1.8019 -0.4257
 4647WAT     H214344   0.574   2.533   2.199  0.4395 -0.5348  0.1025
 4648WAT      O14345   3.318   4.651   0.481 -0.3819  0.0669  0.1580
 4648WAT     H114346   3.324   4.575   0.539 -2.0401 -1.4218 -1.4907
 4648WAT     H214347   3.268   4.715   0.531 -0.7174 -0.7030  0.8362
 4649WAT      O14348   2.516   1.721   3.309  0.7032  0.3728 -0.3592
 4649WAT     H114349   2.572   1.777   3.254  0.2767  0.7089 -0.4682
 4649WAT     H214350   2.475   1.660   3.247  0.2157  0.7572 -0.4289
 4650WAT      O14351   7.328   3.204   2.623  0.6270 -0.0186  0.4866
 4650WAT     H114352   7.260   3.179   2.686  0.7808 -0.2162  0.5769
 4650WAT     H214353   7.368   3.282   2.660  0.6929 -0.1140  0.6179
 4651WAT      O14354   6.567   1.519   0.504 -0.0740 -0.1448  0.5349
 4651WAT     H114355   6.633   1.533   0.435  0.3686 -1.7405  0.5905
 4651WAT     H214356   6.560   1.603   0.548 -0.4930  0.9792 -1.5543
 4652WAT      O14357   0.299   4.167   2.807  0.0828  0.7614  0.1478
 4652WAT     H114358   0.335   4.238   2.753  2.5884 -0.8477 -0.4574
 4652WAT     H214359   0.322   4.191   2.897  0.9694  0.7391 -0.0595
 4653WAT      O14360   5.762   1.901   5.316 -0.0896 -0.2263  0.3805
 4653WAT     H114361   5.739   1.894   5.409  0.0662 -2.7152  0.3082
 4653WAT     H214362   5.848   1.859   5.310  0.2244  0.5554 -0.8025
 4654WAT      O14363   2.492   0.077   1.874  0.8749 -0.0692  0.2420
 4654WAT     H114364   2.468   0.024   1.798  0.1824  0.1148  0.3292
 4654WAT     H214365   2.428   0.052   1.941  0.7831  0.6022  0.4044
 4655WAT      O14366   2.890   2.545   3.375 -0.0362  0.7383  0.3246
 4655WAT     H114367   2.876   2.631   3.415  1.0474  1.1745 -0.1825
 4655WAT     H214368   2.817   2.492   3.405 -0.7210  1.8382  0.6522
 4656WAT      O14369   1.290   4.794   0.134  0.1434  0.1412 -0.2658
 4656WAT     H114370   1.309   4.882   0.101 -0.9227  0.1717 -0.8387
 4656WAT     H214371   1.206   4.803   0.179 -0.3369 -0.7162 -0.9557
 4657WAT      O14372   3.752   6.415   5.681 -0.1468 -0.7329 -0.3356
 4657WAT     H114373   3.827   6.358   5.695 -0.4532 -1.0929 -0.1304
 4657WAT     H214374   3.706   6.415   5.764 -0.0199  0.0169 -0.2579
 4658WAT      O14375   0.590   4.699   1.638  0.3882  0.1237  0.0082
 4658WAT     H114376   0.684   4.706   1.627  0.4336 -1.7411 -1.4028
 4658WAT     H214377   0.577   4.618   1.687 -0.4791 -0.6090 -1.3444
 4659WAT      O14378   0.240   0.869   3.258  0.4587  0.1359 -0.5412
 4659WAT     H114379   0.307   0.832   3.315 -0.9900 -0.0800  1.1044
 4659WAT     H214380   0.206   0.795   3.209 -0.3207 -0.2298  0.5141
 4660WAT      O14381   3.404   2.822   3.674 -0.1864  0.1363 -0.3319
 4660WAT     H114382   3.325   2.768   3.674 -0.7921  1.0123 -0.6328
 4660WAT     H214383   3.414   2.848   3.766 -0.2137 -0.0220 -0.2833
 4661WAT      O14384  -0.000   5.833   4.377  0.3896  0.2055 -0.1852
 4661WAT     H114385   0.057   5.910   4.379  1.4615 -0.5382 -1.0168
 4661WAT     H214386   0.035   5.779   4.306 -1.0237 -0.5436 -0.3464
 4662WAT      O14387   5.836   3.218   4.011 -0.6071  0.3789 -0.3843
 4662WAT     H114388   5.904   3.267   3.964  0.3012  0.0986  0.5716
 4662WAT     H214389   5.811   3.276   4.083  0.3457 -0.4325  0.6506
 4663WAT      O14390   0.997   1.266   3.370  0.4490  0.2916  0.4935
 4663WAT     H114391   1.068   1.325   3.343  0.0083  0.5649 -0.0712
 4663WAT     H214392   1.043   1.190   3.406  1.0354  0.3225 -0.1602
 4664WAT      O14393   5.487   0.827   2.597  0.3267 -0.4155  0.5354
 4664WAT     H114394   5.579   0.850   2.612  0.6787 -1.8074  0.7177
 4664WAT     H214395   5.437   0.895   2.642  1.3070 -0.5200  1.8457
 4665WAT      O14396   7.108   3.238   1.974  0.3567 -0.3210  0.3633
 4665WAT     H114397   7.062   3.291   2.039  0.4439 -2.2199  2.1014
 4665WAT     H214398   7.085   3.148   1.997  1.4605 -1.1245 -1.4598
 4666WAT      O14399   2.342   4.300   2.100 -0.3153  0.0448  0.6598
 4666WAT     H114400   2.304   4.374   2.053  0.2565 -0.5078 -0.7179
 4666WAT     H214401   2.368   4.239   2.032  0.6475 -0.7518  1.7049
 4667WAT      O14402   5.037   6.251   5.159  0.3456  0.6925 -0.3407
 4667WAT     H114403   4.943   6.239   5.145 -0.2794  2.0809  2.0931
 4667WAT     H214404   5.065   6.304   5.085 -1.3336  2.2437  0.0420
 4668WAT      O14405   3.333   4.527   1.973 -0.6952 -0.2420  0.5977
 4668WAT     H114406   3.243   4.525   2.005 -1.1345  0.8188 -0.4677
 4668WAT     H214407   3.376   4.596   2.025 -0.8404  0.0730  0.3058
 4669WAT      O14408   7.421   4.164   4.175 -0.4202  0.0639 -0.2299
 4669WAT     H114409   7.369   4.217   4.235 -2.7299  0.2467 -2.2437
 4669WAT     H214410   7.427   4.079   4.217 -1.7366  0.2677  0.4088
 4670WAT      O14411   5.912   2.328   4.646 -0.1981 -0.1324 -0.1553
 4670WAT     H114412   5.903   2.302   4.738 -0.2670  1.0041  0.1765
 4670WAT     H214413   5.868   2.259   4.597 -0.9973 -0.2724  0.7283
 4671WAT      O14414   4.289   6.268   3.729  0.6201 -0.0918 -0.4052
 4671WAT     H114415   4.224   6.315   3.780  0.1246 -1.2228  0.0398
 4671WAT     H214416   4.277   6.176   3.752  1.8769 -0.4095 -0.8779
 4672WAT      O14417   4.883   1.074   0.529  0.0019  0.1461 -0.8313
 4672WAT     H114418   4.860   1.071   0.622 -0.0026 -0.4393 -0.8441
 4672WAT     H214419   4.841   1.153   0.496  0.8709  0.9333 -0.1112
 4673WAT      O14420   4.318   2.318   0.956  0.0893 -0.4406 -0.0460
 4673WAT     H114421   4.279   2.333   0.870 -2.2865 -0.2256  0.9830
 4673WAT     H214422   4.306   2.401   1.002 -2.0993 -1.6066  1.6777
 4674WAT      O14423   0.056   7.001   6.204  0.1940 -0.7591  0.2413
 4674WAT     H114424   0.062   7.076   6.264 -0.3942  0.1813 -0.8417
 4674WAT     H214425   0.047   6.925   6.262  1.4380 -0.0869  1.3938
 4675WAT      O14426   7.369   5.742   3.763  0.6028 -0.7946 -0.8219
 4675WAT     H114427   7.344   5.826   3.802  3.0713  0.1352 -1.0739
 4675WAT     H214428   7.292   5.686   3.775 -0.6711  1.1150  0.4425
 4676WAT      O14429   0.502   0.258   0.639  0.1200  0.2861  0.3162
 4676WAT     H114430   0.558   0.193   0.683  1.2459  0.5100 -0.7293
 4676WAT     H214431   0.463   0.210   0.566 -1.7578 -0.0892  1.5078
 4677WAT      O14432   2.565   6.699   1.518 -0.5193  0.5291  0.1699
 4677WAT     H114433   2.650   6.739   1.502 -0.3520 -0.0733 -0.5286
 4677WAT     H214434   2.514   6.768   1.561  0.0315  1.1996 -0.2178
 4678WAT      O14435   6.678   0.133   4.598 -0.3113 -0.1213  0.1322
 4678WAT     H114436   6.670   0.228   4.593 -0.1487  0.0481  2.2717
 4678WAT     H214437   6.616   0.107   4.666  1.2775 -1.2691  1.2062
 4679WAT      O14438   3.428   4.363   1.602 -0.2107 -0.1546  0.1072
 4679WAT     H114439   3.414   4.299   1.672  1.2896  0.1751  0.7541
 4679WAT     H214440   3.340   4.387   1.573 -0.8359 -1.1185  1.1248
 4680WAT      O14441   0.565   2.777   5.049  0.1789 -0.5769  0.6416
 4680WAT     H114442   0.621   2.719   5.101 -1.4034 -0.6392  2.3577
 4680WAT     H214443   0.489   2.794   5.105 -1.3348 -0.1531 -1.4355
 4681WAT      O14444   2.315   0.863   1.411 -0.1094 -0.9130 -0.0668
 4681WAT     H114445   2.321   0.953   1.441 -0.7477 -1.0396  0.4737
 4681WAT     H214446   2.306   0.869   1.316 -0.0293 -0.4128 -0.0420
 4682WAT      O14447   6.847   1.588   3.438  0.6616 -0.2324  0.3454
 4682WAT     H114448   6.849   1.520   3.505  1.3891  1.0881  1.6872
 4682WAT     H214449   6.811   1.665   3.482 -1.8123 -0.1347 -1.5773
 4683WAT      O14450   6.911   4.969   4.355  0.1519 -0.5877 -0.3755
 4683WAT     H114451   6.899   4.914   4.433 -0.4156  0.2225  0.1232
 4683WAT     H214452   7.006   4.976   4.345  0.2401  0.0025  0.7596
 4684WAT      O14453   1.750   2.926   1.446  0.3155  0.1243 -0.0390
 4684WAT     H114454   1.764   2.907   1.353  1.5137  0.5817  0.0259
 4684WAT     H214455   1.686   2.996   1.447 -0.0463 -0.1960 -0.4991
 4685WAT      O14456   2.639   3.703   4.348 -0.7243 -0.5823 -0.9983
 4685WAT     H114457   2.723   3.731   4.311 -0.4609  0.4578  0.3186
 4685WAT     H214458   2.584   3.688   4.272 -0.8560  3.4744 -1.9601
 4686WAT      O14459   3.180   3.455   5.345 -0.8860 -0.4133 -0.0778
 4686WAT     H114460   3.097   3.493   5.373  0.1103  1.1207  0.9785
 4686WAT     H214461   3.230   3.444   5.426 -0.4498 -2.3576 -0.5619
 4687WAT      O14462   1.319   4.679   4.735 -0.1396  0.1515  0.5588
 4687WAT     H114463   1.316   4.772   4.715 -0.8077  0.1630  0.6760
 4687WAT     H214464   1.348   4.675   4.826  0.2363  0.2255  0.4437
 4688WAT      O14465   6.503   4.185   2.742 -0.0308 -0.0375  0.3085
 4688WAT     H114466   6.487   4.103   2.695  0.4798 -0.2134  0.4275
 4688WAT     H214467   6.591   4.211   2.713  0.0876  0.1096  0.7892
 4689WAT      O14468   2.606   6.092   1.498 -0.1529  0.1779  0.4233
 4689WAT     H114469   2.664   6.117   1.569  0.4962 -0.2707  0.0666
 4689WAT     H214470   2.518   6.095   1.535 -0.0656  2.4061  0.5440
 4690WAT      O14471   5.342   3.845   1.609 -0.0264 -0.2422  0.1573
 4690WAT     H114472   5.385   3.837   1.694  1.2276  0.1500 -0.4127
 4690WAT     H214473   5.252   3.870   1.630 -0.1221 -1.4800  1.4013
 4691WAT      O14474   1.946   1.400   1.641  0.8054 -0.0142  0.1579
 4691WAT     H114475   1.918   1.326   1.587  1.3572  0.0315 -0.1972
 4691WAT     H214476   1.870   1.458   1.645 -0.1280 -1.2454  1.6032
 4692WAT      O14477   0.014   2.871   3.287 -0.9369 -0.2878 -0.5640
 4692WAT     H114478   0.003   2.808   3.357 -0.4208 -1.6125 -1.6334
 4692WAT     H214479  -0.010   2.824   3.207  2.3622 -0.2148 -1.7850
 4693WAT      O14480   4.262   1.891   0.288 -0.0534 -0.6562 -0.1708
 4693WAT     H114481   4.257   1.901   0.383 -0.7172 -1.3672 -0.1181
 4693WAT     H214482   4.317   1.813   0.275  0.2608 -0.3998 -0.3764
 4694WAT      O14483   1.854   2.504   2.756 -0.3317  0.1439 -0.0353
 4694WAT     H114484   1.845   2.589   2.715  0.0230  0.6114  0.8298
 4694WAT     H214485   1.817   2.515   2.844  0.4833 -0.3414  0.3865
 4695WAT      O14486   5.254   5.449   4.832  0.0774 -0.2467  0.6176
 4695WAT     H114487   5.253   5.541   4.860 -1.6108  0.7588 -2.2621
 4695WAT     H214488   5.162   5.422   4.836  0.3040 -1.2305 -0.2686
 4696WAT      O14489   5.363   6.970   4.673  0.7026 -0.2166  0.5933
 4696WAT     H114490   5.427   7.019   4.725  0.2948  1.1695 -0.1499
 4696WAT     H214491   5.278   6.991   4.714  0.6029 -1.1903  0.9219
 4697WAT      O14492   1.090   1.615   3.484 -0.5415 -0.1661  0.0709
 4697WAT     H114493   1.120   1.667   3.558 -0.6778  1.1692 -0.7821
 4697WAT     H214494   1.162   1.619   3.421 -0.9504 -0.2054 -0.4024
 4698WAT      O14495   4.554   1.954   5.538 -0.1587 -0.1749 -0.3063
 4698WAT     H114496   4.506   1.951   5.456 -2.4476 -0.1312  0.9372
 4698WAT     H214497   4.592   2.042   5.542 -0.7708  0.1222 -0.9333
 4699WAT      O14498   2.523   5.122   3.137  0.0004  0.3698 -0.5973
 4699WAT     H114499   2.600   5.100   3.189 -0.0157  0.2112 -0.6405
 4699WAT     H214500   2.500   5.210   3.165 -1.1483 -0.4001  1.1087
 4700WAT      O14501   6.296   5.207   2.199 -0.2562  0.2100 -0.5129
 4700WAT     H114502   6.230   5.143   2.170 -0.4345 -0.1927  0.7318
 4700WAT     H214503   6.276   5.221   2.291  1.1253  0.4467 -0.2367
 4701WAT      O14504   0.099   2.149   0.119 -0.2363  0.1320  0.1776
 4701WAT     H114505   0.146   2.093   0.057  0.2006 -0.7878  1.2987
 4701WAT     H214506   0.156   2.153   0.195 -2.5467 -2.2696  2.2122
 4702WAT      O14507   6.440   4.621   0.186  0.5337  0.5685 -0.0837
 4702WAT     H114508   6.357   4.608   0.230  0.2064  1.4132 -0.4230
 4702WAT     H214509   6.428   4.702   0.136  1.7383  1.0154  0.3094
 4703WAT      O14510   2.726   2.318   1.947 -0.2171 -0.9436 -0.1723
 4703WAT     H114511   2.741   2.229   1.979 -1.8538 -2.2761 -2.7602
 4703WAT     H214512   2.785   2.326   1.872 -0.4038  0.0254 -0.2228
 4704WAT      O14513   1.962   2.698   3.427 -0.3957 -0.6986  0.3971
 4704WAT     H114514   1.966   2.751   3.507 -0.7670  0.0266 -0.0602
 4704WAT     H214515   2.036   2.728   3.374  0.1547 -1.5327  0.6740
 4705WAT      O14516   0.374   2.692   3.280  0.2018 -0.1790  0.0203
 4705WAT     H114517   0.389   2.670   3.372 -0.0099 -1.4874 -0.2430
 4705WAT     H214518   0.450   2.655   3.235  1.3146  2.1463 -0.1376
 4706WAT      O14519   0.582   1.890   4.199  0.4537  0.1476  0.5169
 4706WAT     H114520   0.666   1.887   4.245  1.4554 -1.0758 -1.2825
 4706WAT     H214521   0.552   1.800   4.199  0.6078  0.0632 -1.3684
 4707WAT      O14522   2.508   6.320   3.994  0.1720 -0.3154 -0.6999
 4707WAT     H114523   2.532   6.317   4.087 -0.6179 -0.8640 -0.5021
 4707WAT     H214524   2.552   6.245   3.956 -0.9305 -1.1428 -0.3974
 4708WAT      O14525   6.660   2.330   0.407 -0.3082  0.4625 -0.3774
 4708WAT     H114526   6.622   2.260   0.459 -0.2903  0.1692 -0.7543
 4708WAT     H214527   6.636   2.309   0.317  1.1241  0.0195 -0.6828
 4709WAT      O14528   5.634   3.616   4.653  0.5781  0.3481  0.4082
 4709WAT     H114529   5.576   3.638   4.726 -1.6310 -2.3004 -0.3994
 4709WAT     H214530   5.657   3.524   4.668  2.3478  0.5359 -0.8293
 4710WAT      O14531   1.457   1.801   4.145  0.5898  0.0247 -0.0001
 4710WAT     H114532   1.508   1.719   4.147  0.2296 -0.2017  2.0111
 4710WAT     H214533   1.467   1.837   4.233 -1.9863  0.4298  0.1837
 4711WAT      O14534   5.500   2.321   0.927  0.4155 -0.1860  0.4643
 4711WAT     H114535   5.479   2.276   0.845 -2.1422  0.6669  0.5609
 4711WAT     H214536   5.466   2.410   0.915  1.0788  0.3110  2.0122
 4712WAT      O14537   5.591   3.583   0.658  0.5069  0.2728  0.6873
 4712WAT     H114538   5.630   3.636   0.588 -0.1263 -0.0611  0.0673
 4712WAT     H214539   5.571   3.499   0.616 -0.7577  0.3899  0.9999
 4713WAT      O14540   3.489   6.986   4.073  0.1105 -0.0989  0.6052
 4713WAT     H114541   3.534   6.910   4.110  0.5322  0.4557  1.2643
 4713WAT     H214542   3.545   7.060   4.096 -1.3499  0.6734  1.8331
 4714WAT      O14543   2.339   5.558   2.980 -0.2169 -0.4563  0.0053
 4714WAT     H114544   2.344   5.538   3.074 -2.4424 -1.1338  0.0385
 4714WAT     H214545   2.429   5.552   2.950  0.6744  0.4967  2.2318
 4715WAT      O14546   2.632   6.672   2.243  0.2431 -0.1765 -0.1020
 4715WAT     H114547   2.717   6.666   2.200  0.6635 -0.7834  0.7794
 4715WAT     H214548   2.626   6.593   2.296  0.0757  0.8736  1.5215
 4716WAT      O14549   6.355   5.950   2.389 -0.4786  0.5384 -0.1586
 4716WAT     H114550   6.367   6.035   2.431 -0.1304 -0.2205  1.3585
 4716WAT     H214551   6.391   5.961   2.302 -0.3734  1.9252  0.0398
 4717WAT      O14552   2.130   0.661   2.647  0.3276 -0.0330 -0.2782
 4717WAT     H114553   2.126   0.569   2.673  0.2602 -0.0513 -0.3506
 4717WAT     H214554   2.166   0.659   2.558  0.6568  0.0369 -0.1484
 4718WAT      O14555   5.512   1.580   3.222  0.2730 -0.3477 -0.7225
 4718WAT     H114556   5.443   1.643   3.241  1.3570  0.7679 -0.4212
 4718WAT     H214557   5.492   1.506   3.279 -0.9455 -0.2676 -1.0014
 4719WAT      O14558   6.584   4.654   3.361  0.0096  0.4918  0.0411
 4719WAT     H114559   6.570   4.603   3.440 -2.0301  1.9412  0.7227
 4719WAT     H214560   6.498   4.655   3.318  0.8845  0.3819 -1.8043
 4720WAT      O14561   0.645   4.301   0.683 -0.0973  0.2591 -0.5290
 4720WAT     H114562   0.602   4.364   0.626 -3.3570  0.2955  1.6733
 4720WAT     H214563   0.598   4.219   0.667  2.3960 -1.0877 -1.5199
 4721WAT      O14564   2.767   3.940   4.240  0.2097  0.1911 -0.0649
 4721WAT     H114565   2.838   3.887   4.205 -1.7072 -2.2268 -0.5770
 4721WAT     H214566   2.791   3.956   4.331  1.5229 -0.2866 -0.3076
 4722WAT      O14567   4.123   6.848   4.643 -0.2038 -0.4701  0.2419
 4722WAT     H114568   4.028   6.835   4.639 -0.2062 -0.4391  0.2055
 4722WAT     H214569   4.158   6.794   4.573 -0.3711  1.3611 -1.3482
 4723WAT      O14570   2.869   5.122   2.491 -0.7176 -0.6699 -0.4029
 4723WAT     H114571   2.783   5.091   2.461 -2.1574  2.3292  0.2038
 4723WAT     H214572   2.850   5.171   2.571  1.1357  2.0483 -1.4736
 4724WAT      O14573   0.370   2.041   6.185 -0.2601  0.3455 -0.1461
 4724WAT     H114574   0.351   1.974   6.119 -0.0386  0.8981 -0.7840
 4724WAT     H214575   0.465   2.037   6.197 -0.3024  0.2316  0.1613
 4725WAT      O14576   1.238   1.449   2.929  0.1270 -0.1986 -0.3336
 4725WAT     H114577   1.166   1.512   2.933 -0.5340 -0.9233 -0.6604
 4725WAT     H214578   1.304   1.491   2.873 -0.1254  0.3735 -0.2087
 4726WAT      O14579   4.496   4.228   3.153 -0.7608  0.1958  0.0881
 4726WAT     H114580   4.525   4.282   3.225  0.6111 -0.9505  0.4422
 4726WAT     H214581   4.407   4.201   3.177 -0.5282  0.2858  1.0645
 4727WAT      O14582   3.112   5.537   4.084 -0.2931  0.0498 -0.8160
 4727WAT     H114583   3.070   5.614   4.120  0.4180  0.0221  0.1024
 4727WAT     H214584   3.199   5.567   4.057  0.5794 -0.7262  0.9757
 4728WAT      O14585   1.982   7.183   4.203 -0.3165 -0.2572  0.4281
 4728WAT     H114586   2.067   7.205   4.165 -0.4734  0.2746  0.3763
 4728WAT     H214587   1.927   7.259   4.184 -1.0572 -0.9615 -0.3094
 4729WAT      O14588   0.246   3.969   6.234 -0.3769  0.3224 -0.0847
 4729WAT     H114589   0.283   3.886   6.205  1.2363  1.1257 -0.4276
 4729WAT     H214590   0.153   3.963   6.210  0.1261 -0.5360 -2.0800
 4730WAT      O14591   5.165   0.581   2.827 -0.4428  0.0371  0.3123
 4730WAT     H114592   5.167   0.622   2.914 -1.0783  0.3440  0.1861
 4730WAT     H214593   5.182   0.488   2.844 -0.5795  0.0915  0.7655
 4731WAT      O14594   0.240   0.819   6.045 -0.8825  0.1309 -0.0255
 4731WAT     H114595   0.169   0.845   6.102 -0.4493  1.4128 -0.0356
 4731WAT     H214596   0.214   0.850   5.958 -1.5533 -1.8300 -0.5706
 4732WAT      O14597   1.365   5.097   4.976 -0.0514  0.2664  0.2330
 4732WAT     H114598   1.330   5.065   5.058 -0.6370  0.8353  0.2129
 4732WAT     H214599   1.441   5.150   5.001 -2.2911  3.4764  0.7819
 4733WAT      O14600   2.638   5.254   3.641  0.3095  0.0885  0.4065
 4733WAT     H114601   2.564   5.314   3.648  0.7575  0.7700 -0.4214
 4733WAT     H214602   2.690   5.271   3.720 -0.3636 -0.3324  0.9484
 4734WAT      O14603   3.310   4.627   2.236 -0.4421 -0.0998 -0.0383
 4734WAT     H114604   3.215   4.617   2.246 -0.1842 -1.3565  1.3739
 4734WAT     H214605   3.319   4.703   2.179 -2.2892  0.4113  0.2679
 4735WAT      O14606   6.609   4.490   5.526 -0.2130 -0.0604 -0.0496
 4735WAT     H114607   6.641   4.578   5.509 -0.6424  0.2667  0.7959
 4735WAT     H214608   6.519   4.502   5.555  0.2736 -0.6150  1.8363
 4736WAT      O14609   6.949   1.597   1.812  0.0071 -0.2018 -0.0933
 4736WAT     H114610   6.915   1.593   1.902  1.2308  1.8079  0.5083
 4736WAT     H214611   7.041   1.576   1.821  0.1489  0.0717 -0.8763
 4737WAT      O14612   1.454   5.678   3.234 -0.2586  0.2282 -0.2231
 4737WAT     H114613   1.502   5.708   3.312 -0.2893  1.0852 -0.5294
 4737WAT     H214614   1.504   5.713   3.160  0.6884 -1.9318 -0.6701
 4738WAT      O14615   3.617   1.986   3.346  0.4715  0.0114  0.0700
 4738WAT     H114616   3.604   2.029   3.431 -1.1151 -1.2128  0.5019
 4738WAT     H214617   3.699   2.022   3.313  1.7478 -0.3054  2.6467
 4739WAT      O14618   3.367   6.447   4.646 -0.1397 -0.2847  0.0238
 4739WAT     H114619   3.438   6.485   4.698 -0.4137 -1.9315  1.7033
 4739WAT     H214620   3.299   6.515   4.645  1.5411  1.5627 -2.1026
 4740WAT      O14621   5.469   6.613   2.419 -1.0922 -0.0496  0.4761
 4740WAT     H114622   5.391   6.564   2.444 -0.8493  1.0660  4.0016
 4740WAT     H214623   5.484   6.673   2.492  1.9147  1.2281 -1.0037
 4741WAT      O14624   1.668   4.713   4.064  0.8911 -0.1038  0.0206
 4741WAT     H114625   1.667   4.633   4.116  0.8631 -0.1361 -0.0299
 4741WAT     H214626   1.623   4.777   4.119  1.2307 -0.0272  0.2134
 4742WAT      O14627   7.648   5.026   0.342 -0.4684  0.5266 -0.0469
 4742WAT     H114628   7.559   5.010   0.313 -0.4810  0.4490  0.0329
 4742WAT     H214629   7.662   5.120   0.329 -0.6167  0.5683  0.0927
 4743WAT      O14630   0.865   1.174   5.770 -0.0105 -0.1830 -0.0208
 4743WAT     H114631   0.808   1.154   5.845 -1.4045  0.0004 -0.9957
 4743WAT     H214632   0.825   1.249   5.728  1.5356  0.5912 -0.1903
 4744WAT      O14633   0.599   1.974   0.000 -0.6361 -0.0196  0.0282
 4744WAT     H114634   0.506   1.961  -0.018 -0.8087 -1.1016  1.5399
 4744WAT     H214635   0.606   2.065   0.030 -1.2873 -0.1183  0.4725
 4745WAT      O14636   7.032   4.549   0.316 -0.0269  0.3836 -0.1714
 4745WAT     H114637   6.988   4.595   0.388  1.1485  0.7340  0.3479
 4745WAT     H214638   6.971   4.481   0.290 -1.3000  1.4745 -0.1403
 4746WAT      O14639   3.549   3.806   0.325  0.0464 -0.0760  0.5218
 4746WAT     H114640   3.554   3.754   0.405 -0.8087 -1.3485 -0.2168
 4746WAT     H214641   3.599   3.755   0.261 -0.2841  0.3127 -0.0510
 4747WAT      O14642   7.149   5.418   2.800  0.1374 -0.1160 -0.0696
 4747WAT     H114643   7.073   5.428   2.742 -1.5136  0.1581  2.0232
 4747WAT     H214644   7.112   5.389   2.883  1.7581  3.8669  2.3092
 4748WAT      O14645   1.109   1.213   2.891  0.1042 -0.1634 -0.2036
 4748WAT     H114646   1.161   1.283   2.932 -0.3545 -0.2524  0.5478
 4748WAT     H214647   1.020   1.248   2.889 -0.1317 -0.7202  0.1835
 4749WAT      O14648   2.091   1.402   4.108  0.1389 -0.2269 -0.6200
 4749WAT     H114649   2.075   1.461   4.034  0.7584 -0.7657 -1.1981
 4749WAT     H214650   2.060   1.451   4.185  0.8532  0.9473 -1.0508
 4750WAT      O14651   6.828   1.308   5.419  0.2410  0.3170  0.5946
 4750WAT     H114652   6.778   1.330   5.498 -0.2350 -2.0593  1.0437
 4750WAT     H214653   6.890   1.241   5.448  1.2567  0.6500 -0.7154
 4751WAT      O14654   2.494   2.113   3.394  0.3310  0.3715  0.5247
 4751WAT     H114655   2.490   2.042   3.458 -1.1139  0.3715  0.4742
 4751WAT     H214656   2.412   2.161   3.406 -0.0955  0.2386 -1.4496
 4752WAT      O14657   1.016   4.949   2.376  0.0082 -0.4195  0.5186
 4752WAT     H114658   1.106   4.916   2.382  0.1189 -0.1897  0.1874
 4752WAT     H214659   1.023   5.042   2.396 -0.0991 -0.3241  0.1237
 4753WAT      O14660   1.661   4.387   1.715 -0.1567 -0.9151  0.2649
 4753WAT     H114661   1.696   4.393   1.804  0.7646 -2.4660  0.0511
 4753WAT     H214662   1.691   4.302   1.683  0.3342 -0.0360 -1.8626
 4754WAT      O14663   3.662   5.363   2.639  0.5552  0.2462  0.4605
 4754WAT     H114664   3.599   5.393   2.573  1.1143 -2.6515 -1.5899
 4754WAT     H214665   3.611   5.354   2.719 -1.1583  0.0076 -0.6131
 4755WAT      O14666   4.503   6.600   1.579  0.0014 -0.2774  0.4964
 4755WAT     H114667   4.424   6.652   1.593 -0.5286 -0.8424 -0.2797
 4755WAT     H214668   4.481   6.544   1.504  1.1259 -0.4752  0.3046
 4756WAT      O14669   5.655   5.836   5.384 -0.3039 -0.4590 -0.0922
 4756WAT     H114670   5.565   5.842   5.416 -0.2016 -0.7542  0.2628
 4756WAT     H214671   5.663   5.908   5.322 -0.1629  0.8491  1.3650
 4757WAT      O14672   6.028   0.413   1.489  0.2938 -0.0026  0.2328
 4757WAT     H114673   6.081   0.392   1.566  1.7629  2.3792 -0.0004
 4757WAT     H214674   5.938   0.408   1.520  0.8483  1.7104  2.4169
 4758WAT      O14675   1.720   0.888   4.309  0.4352  0.1285  0.4113
 4758WAT     H114676   1.777   0.860   4.381 -0.4792 -2.2580  0.3014
 4758WAT     H214677   1.640   0.838   4.321  0.2827 -0.4345 -2.2974
 4759WAT      O14678   3.177   4.878   1.385 -0.2770 -1.0328  0.3236
 4759WAT     H114679   3.127   4.853   1.462  1.1239 -0.1238  1.5979
 4759WAT     H214680   3.247   4.934   1.420  1.3398 -1.8650 -1.4060
 4760WAT      O14681   2.980   2.928   5.984  0.1249  0.5104  0.2720
 4760WAT     H114682   2.967   2.974   6.067  0.7194  2.3564 -0.6156
 4760WAT     H214683   2.896   2.938   5.938  0.7588  2.1113 -0.5703
 4761WAT      O14684   3.940   4.003   2.437 -0.9369  0.1606 -0.2785
 4761WAT     H114685   4.006   4.041   2.379 -0.1547 -0.6716  0.0486
 4761WAT     H214686   3.899   4.079   2.479  1.7208  0.6760  1.6046
 4762WAT      O14687   4.351   5.254   4.672 -0.5615  0.2455 -0.2180
 4762WAT     H114688   4.439   5.251   4.633 -0.9727  0.6669 -1.2074
 4762WAT     H214689   4.353   5.330   4.730 -0.6729  1.1020 -1.2906
 4763WAT      O14690   5.709   1.340   0.561  0.4921 -0.1095 -0.1712
 4763WAT     H114691   5.766   1.417   0.560  1.2081 -0.6345 -0.7695
 4763WAT     H214692   5.767   1.267   0.538  0.0954 -1.0175  1.5501
 4764WAT      O14693   0.275   2.344   3.232  0.3415  0.1040 -0.2469
 4764WAT     H114694   0.315   2.394   3.303 -1.8608  1.7973 -0.0716
 4764WAT     H214695   0.234   2.269   3.276  0.3073  0.2989  0.0551
 4765WAT      O14696   2.668   1.665   4.456 -0.2860  0.1121 -0.5183
 4765WAT     H114697   2.737   1.689   4.394  1.5288 -0.5456  1.1113
 4765WAT     H214698   2.616   1.745   4.468  1.4415  1.2567 -0.3171
 4766WAT      O14699   2.534   1.096   1.220 -0.6278 -0.2977 -0.2908
 4766WAT     H114700   2.582   1.070   1.141  0.8903 -0.2769  0.5772
 4766WAT     H214701   2.575   1.046   1.290 -0.8925  0.8300  0.7107
 4767WAT      O14702   5.756   0.893   2.653  0.3622  0.8693 -0.2025
 4767WAT     H114703   5.822   0.851   2.598  1.1988 -1.5149  2.3753
 4767WAT     H214704   5.793   0.979   2.674  1.5140  0.5251 -0.7511
 4768WAT      O14705   4.894   5.601   4.192  0.1987 -0.1228  0.2858
 4768WAT     H114706   4.867   5.616   4.282  0.1492 -2.2805  0.6951
 4768WAT     H214707   4.932   5.684   4.164 -1.3913  1.1447  1.6746
 4769WAT      O14708   7.349   2.857   4.250  0.6579  0.2379 -0.1486
 4769WAT     H114709   7.415   2.911   4.293 -0.2567 -0.8210  2.8238
 4769WAT     H214710   7.285   2.837   4.318  0.5162 -3.9163 -1.2068
 4770WAT      O14711   2.833   6.033   2.664 -0.2355  0.1646  0.2663
 4770WAT     H114712   2.855   6.111   2.715 -0.3451  0.0385  0.5077
 4770WAT     H214713   2.908   6.021   2.607 -1.1540  1.7278 -1.3606
 4771WAT      O14714   1.164   3.935   2.099  0.3459 -0.9649 -0.5552
 4771WAT     H114715   1.116   3.853   2.104 -0.8730 -0.1940  2.2495
 4771WAT     H214716   1.180   3.959   2.190  1.0852  1.6873 -1.2922
 4772WAT      O14717   5.452   7.076   1.295 -0.3011  0.7197  0.4774
 4772WAT     H114718   5.359   7.059   1.313  0.0651 -0.2545  1.5883
 4772WAT     H214719   5.483   7.124   1.372  0.5985 -0.8425  1.1321
 4773WAT      O14720   4.448   2.458   1.827  0.4668  0.0091 -0.8769
 4773WAT     H114721   4.471   2.427   1.740 -0.5815 -1.2490 -0.7368
 4773WAT     H214722   4.355   2.477   1.822  0.1176 -1.2043  0.2443
 4774WAT      O14723   0.895   3.691   3.191  0.0972 -0.2227  0.0439
 4774WAT     H114724   0.896   3.638   3.271 -0.4057  0.6327  0.6297
 4774WAT     H214725   0.987   3.716   3.178  0.1779 -0.3589  0.3536
 4775WAT      O14726   1.089   0.301   2.796  0.1494 -0.4545 -0.5659
 4775WAT     H114727   1.183   0.287   2.788  0.4463  1.6131 -1.2856
 4775WAT     H214728   1.081   0.373   2.858 -1.0151 -0.9319 -0.1284
 4776WAT      O14729   1.891   0.057   4.134 -0.3105 -0.3575 -0.7440
 4776WAT     H114730   1.983   0.077   4.152 -0.2243  0.3663 -1.8607
 4776WAT     H214731   1.849   0.143   4.130 -1.0989 -0.6933  0.0171
 4777WAT      O14732   4.714   5.219   1.380 -1.0082  0.1904  0.0036
 4777WAT     H114733   4.732   5.127   1.399  2.6346  0.9485  1.0918
 4777WAT     H214734   4.645   5.244   1.442  1.3428 -0.7174  3.2203
 4778WAT      O14735   0.908   1.359   3.111  0.3465 -0.1392  0.0106
 4778WAT     H114736   0.977   1.329   3.170  0.2183  0.0017  0.2312
 4778WAT     H214737   0.859   1.280   3.089  0.6701 -0.2641 -0.2659
 4779WAT      O14738   1.215   4.547   3.542  0.1757 -0.5045  0.2690
 4779WAT     H114739   1.229   4.459   3.578 -4.2407 -1.0948  1.1167
 4779WAT     H214740   1.235   4.606   3.615 -0.9756 -1.1598  1.1449
 4780WAT      O14741   5.994   0.062   4.569 -0.2237 -0.5463  0.3323
 4780WAT     H114742   5.964   0.084   4.481 -1.1713 -2.3389  0.1674
 4780WAT     H214743   6.089   0.072   4.565 -0.2324 -0.7830 -0.9489
 4781WAT      O14744   2.956   5.213   0.450  0.2084 -0.9525 -0.5866
 4781WAT     H114745   2.879   5.265   0.472 -0.0422 -0.9267 -1.5051
 4781WAT     H214746   2.928   5.122   0.463 -0.0721 -0.9564 -1.1939
 4782WAT      O14747   0.665   5.344   0.319 -0.2960 -0.3769 -0.4887
 4782WAT     H114748   0.654   5.438   0.333  1.6701  0.6511 -4.3688
 4782WAT     H214749   0.725   5.316   0.389  0.3179  1.6045 -0.1521
 4783WAT      O14750   5.437   3.256   1.419 -0.0365 -0.3537  0.3409
 4783WAT     H114751   5.501   3.316   1.458 -0.1284  0.2494 -0.4075
 4783WAT     H214752   5.475   3.233   1.334 -0.3848 -0.7142  0.2815
 4784WAT      O14753   0.462   2.982   1.479  0.1809  0.0337 -0.6316
 4784WAT     H114754   0.474   2.996   1.573 -0.1661  0.0047 -0.5821
 4784WAT     H214755   0.386   2.923   1.473  1.1078 -1.1892 -0.8639
 4785WAT      O14756   7.372   6.014   0.515 -0.4479  0.3152 -0.0175
 4785WAT     H114757   7.357   6.105   0.489 -1.5149  0.6753  1.7375
 4785WAT     H214758   7.467   6.007   0.521 -0.1807  0.5430 -2.6327
 4786WAT      O14759   4.482   6.401   3.595  0.4508  0.1505  0.5458
 4786WAT     H114760   4.550   6.407   3.662  0.6970 -1.3176  0.4570
 4786WAT     H214761   4.414   6.347   3.635  0.6436 -0.8199 -0.4025
 4787WAT      O14762   1.997   5.290   5.972  0.7508 -0.0016 -0.1952
 4787WAT     H114763   2.027   5.309   6.061  1.9061  1.2288 -0.8245
 4787WAT     H214764   1.937   5.361   5.951 -0.4217 -0.8962 -0.0217
 4788WAT      O14765   7.467   1.324   3.753  0.4051 -0.1471  0.0191
 4788WAT     H114766   7.476   1.274   3.834 -1.4150 -0.3884  0.1145
 4788WAT     H214767   7.415   1.268   3.696  1.7568 -0.0321 -1.3976
 4789WAT      O14768   1.788   5.640   0.477 -0.1057 -0.0182 -0.0859
 4789WAT     H114769   1.856   5.694   0.517  1.5205 -0.7440 -1.7079
 4789WAT     H214770   1.788   5.559   0.529 -1.9390  1.1049  1.8021
 4790WAT      O14771   6.164   2.606   1.900 -0.4215 -0.5501  0.1521
 4790WAT     H114772   6.187   2.641   1.986 -1.8191 -0.3048  0.4580
 4790WAT     H214773   6.070   2.590   1.906 -1.1349  2.0926 -2.2075
 4791WAT      O14774   5.458   4.988   5.576 -1.3578 -0.2538  0.1506
 4791WAT     H114775   5.517   4.915   5.561 -0.2093  0.5553  0.6183
 4791WAT     H214776   5.484   5.054   5.512 -0.0505  1.0762  1.9381
 4792WAT      O14777   1.671   7.110   5.615  0.1356 -0.0461 -0.2716
 4792WAT     H114778   1.613   7.154   5.677 -0.8921  2.7416 -2.9314
 4792WAT     H214779   1.612   7.066   5.554  1.0363 -1.1492 -0.3837
 4793WAT      O14780   6.111   4.722   5.131  0.1303  0.2621  1.0533
 4793WAT     H114781   6.069   4.641   5.102 -1.3410  1.2101  0.4531
 4793WAT     H214782   6.045   4.766   5.184 -0.2702  2.5223 -1.1542
 4794WAT      O14783   4.677   4.112   1.878 -0.0347  0.2757  0.3203
 4794WAT     H114784   4.757   4.165   1.877  0.0950  0.1231 -1.5092
 4794WAT     H214785   4.626   4.146   1.951  1.2297  1.0891  0.8567
 4795WAT      O14786   4.651   1.105   4.301  0.1526 -0.1589 -0.4817
 4795WAT     H114787   4.689   1.193   4.310 -0.6848  0.0686  1.3055
 4795WAT     H214788   4.557   1.121   4.295 -0.1530 -0.9721  1.4952
 4796WAT      O14789   5.658   1.733   2.126  0.3362  0.0670 -0.2796
 4796WAT     H114790   5.575   1.703   2.163 -1.8233  4.0012 -1.3939
 4796WAT     H214791   5.696   1.789   2.193  2.4472 -1.9803  0.3686
 4797WAT      O14792   4.451   5.009   2.375  0.0523 -0.2709  0.7560
 4797WAT     H114793   4.449   5.074   2.445  1.3400 -0.0059  0.5701
 4797WAT     H214794   4.359   4.992   2.356 -0.3469  2.1032  0.2509
 4798WAT      O14795   3.821   4.389   3.251  0.2955 -0.2244 -0.4985
 4798WAT     H114796   3.888   4.354   3.310 -1.9169 -2.7379  0.7758
 4798WAT     H214797   3.741   4.389   3.304 -1.0924  0.9862 -2.4506
 4799WAT      O14798   0.258   2.514   2.113  0.1453 -0.0572 -0.3753
 4799WAT     H114799   0.345   2.493   2.080  1.0233  0.8228  1.2694
 4799WAT     H214800   0.231   2.435   2.160  0.3217 -0.1099 -0.3624
 4800WAT      O14801   2.870   0.410   2.815 -0.3661 -0.0972 -0.3693
 4800WAT     H114802   2.821   0.441   2.890  0.0152 -0.3616 -0.0049
 4800WAT     H214803   2.839   0.320   2.801  0.5222 -0.5281  0.3209
 4801WAT      O14804   1.529   1.203   5.545 -0.2528  0.4487  0.2061
 4801WAT     H114805   1.599   1.197   5.480 -0.3375 -0.3497  0.1869
 4801WAT     H214806   1.563   1.158   5.622 -0.8576 -0.2039  0.0980
 4802WAT      O14807   3.484   3.481   1.772 -0.1964 -0.6700 -0.3292
 4802WAT     H114808   3.468   3.551   1.709 -1.1049  0.1653  0.7678
 4802WAT     H214809   3.530   3.413   1.723  0.2012  0.4627 -1.5592
 4803WAT      O14810   6.134   2.806   2.989 -0.3860 -0.0375  0.1390
 4803WAT     H114811   6.172   2.807   3.078  0.5105  1.2144 -0.2320
 4803WAT     H214812   6.207   2.779   2.933 -0.2719  1.4760 -0.4803
 4804WAT      O14813   2.563   0.333   3.385  0.1009 -0.1960 -0.1519
 4804WAT     H114814   2.483   0.280   3.381 -0.8265  1.1168  0.5191
 4804WAT     H214815   2.626   0.276   3.430 -1.4575 -0.0742  2.3498
 4805WAT      O14816   4.870   3.986   4.319 -0.3008  0.1050  0.3554
 4805WAT     H114817   4.822   3.930   4.380  0.5885  0.9342  1.8758
 4805WAT     H214818   4.948   4.012   4.368  0.1108  1.3361 -0.9220
 4806WAT      O14819   2.004   6.033   5.160  0.0510  0.1057 -0.0544
 4806WAT     H114820   2.098   6.050   5.169  0.4374 -0.2213 -2.6467
 4806WAT     H214821   1.997   5.938   5.156 -0.4634  0.1140  0.4414
 4807WAT      O14822   1.717   1.473   4.872 -0.3463 -0.2165  0.0346
 4807WAT     H114823   1.631   1.454   4.909  0.5365 -2.0601  1.2585
 4807WAT     H214824   1.729   1.566   4.888 -2.3957  0.2665 -0.8397
 4808WAT      O14825   2.798   6.951   0.367 -0.8812 -0.0466 -0.0765
 4808WAT     H114826   2.765   7.041   0.375 -0.7314  0.2302 -1.9787
 4808WAT     H214827   2.719   6.897   0.365 -1.1756  0.3697 -1.9535
 4809WAT      O14828   3.267   4.031   4.181  0.0531  0.1307  0.3853
 4809WAT     H114829   3.267   4.088   4.104  0.2789 -0.4430 -0.0441
 4809WAT     H214830   3.207   4.074   4.242 -0.4906  0.3504 -0.2889
 4810WAT      O14831   4.964   6.940   5.747  0.4087 -0.1590 -0.3759
 4810WAT     H114832   4.918   7.021   5.767 -0.5469 -1.0276  1.0649
 4810WAT     H214833   4.994   6.907   5.831 -0.8632 -2.2602 -0.6816
 4811WAT      O14834   4.697   1.208   2.180 -0.4435  0.4220 -0.1669
 4811WAT     H114835   4.691   1.137   2.245 -0.0931  1.6708  1.2696
 4811WAT     H214836   4.622   1.265   2.200  1.0052  2.0887  0.7403
 4812WAT      O14837   3.644   3.854   5.498  0.3259  0.2938 -0.0656
 4812WAT     H114838   3.663   3.812   5.582  0.6130  0.7276  0.0916
 4812WAT     H214839   3.725   3.898   5.474  0.3248 -0.0472 -0.7067
 4813WAT      O14840   2.059   6.831   1.235 -0.1625  0.0899 -0.4052
 4813WAT     H114841   2.072   6.757   1.176  0.3660  0.6105 -0.9367
 4813WAT     H214842   2.084   6.797   1.321  1.5863  0.0881 -0.8756
 4814WAT      O14843   0.780   6.398   2.004 -0.0624 -0.4855  0.2408
 4814WAT     H114844   0.772   6.326   1.942 -1.1883 -0.2969  0.1290
 4814WAT     H214845   0.689   6.418   2.029  0.3436 -0.3767  1.7458
 4815WAT      O14846   5.946   1.832   1.818 -0.0162  0.0481 -0.9512
 4815WAT     H114847   5.882   1.763   1.835  0.7568 -0.3835  0.3567
 4815WAT     H214848   6.013   1.819   1.885 -0.5455  2.9599  0.2805
 4816WAT      O14849   5.167   3.692   6.187 -0.1340 -0.0500 -0.2229
 4816WAT     H114850   5.087   3.702   6.136  0.8393  0.0039 -1.8135
 4816WAT     H214851   5.180   3.597   6.192 -0.6215 -0.0856  0.6095
 4817WAT      O14852   1.476   2.105   5.945 -0.0702  0.2822 -0.2517
 4817WAT     H114853   1.418   2.180   5.930 -1.2851 -0.3004  1.2816
 4817WAT     H214854   1.424   2.029   5.919  0.4692 -0.1737 -0.0133
 4818WAT      O14855   7.516   1.799   0.227  0.3956 -0.3978  0.5272
 4818WAT     H114856   7.576   1.777   0.156  0.9106  1.4040  0.3472
 4818WAT     H214857   7.530   1.731   0.293  0.6834 -1.4949 -0.6285
 4819WAT      O14858   0.729   3.610   1.052 -0.2067 -0.4457  0.5920
 4819WAT     H114859   0.742   3.694   1.096 -1.3340  0.2386 -0.3135
 4819WAT     H214860   0.635   3.607   1.035 -0.0398 -1.4756 -0.2015
 4820WAT      O14861   5.207   1.427   3.263 -0.0337  0.1389 -0.3983
 4820WAT     H114862   5.287   1.413   3.315  0.7750  0.5886 -1.4809
 4820WAT     H214863   5.137   1.393   3.318  0.9993 -1.0688  0.2261
 4821WAT      O14864   2.068   1.288   0.961 -0.7768  0.3682  0.0689
 4821WAT     H114865   1.991   1.318   0.912 -0.2847  2.2989  0.3994
 4821WAT     H214866   2.120   1.367   0.975  1.4552 -0.9145 -0.4293
 4822WAT      O14867   7.109   7.107   4.202  0.0141  0.2972 -0.3671
 4822WAT     H114868   7.094   7.158   4.282 -2.6970 -0.4985 -0.2615
 4822WAT     H214869   7.031   7.123   4.148  0.2264 -1.7603 -1.4055
 4823WAT      O14870   2.443   3.770   4.920 -0.6378 -0.4447 -0.4071
 4823WAT     H114871   2.538   3.774   4.911 -0.7559 -1.3707 -2.5317
 4823WAT     H214872   2.422   3.677   4.913 -1.6745 -0.2962  0.4970
 4824WAT      O14873   2.280   0.101   2.080 -0.8847 -0.6713 -0.1740
 4824WAT     H114874   2.206   0.094   2.141  0.4918  2.1650  2.0250
 4824WAT     H214875   2.357   0.111   2.136  0.7235  0.1110 -2.3960
 4825WAT      O14876   7.357   2.149   3.551 -0.3862 -0.2055 -0.2976
 4825WAT     H114877   7.359   2.239   3.518  0.3220 -0.0549  0.1354
 4825WAT     H214878   7.447   2.130   3.577 -0.7504 -0.6017  0.7601
 4826WAT      O14879   3.599   0.058   1.474  0.2103 -0.3280  0.2211
 4826WAT     H114880   3.578   0.119   1.544  0.1321  0.0787 -0.1546
 4826WAT     H214881   3.690   0.078   1.450  0.5724 -1.1270  0.8725
 4827WAT      O14882   4.737   1.692   5.431  1.1612  0.7238  0.6403
 4827WAT     H114883   4.723   1.724   5.520  1.1438  0.5161  0.7137
 4827WAT     H214884   4.830   1.672   5.427  1.3237  1.4923  0.3556
 4828WAT      O14885   4.302   5.354   1.232 -0.2935  0.0474 -0.6449
 4828WAT     H114886   4.221   5.392   1.266 -0.5703 -0.8975 -0.1928
 4828WAT     H214887   4.338   5.305   1.307  0.7045  0.4707 -0.8350
 4829WAT      O14888   6.525   6.318   5.128  0.1680  0.0730 -0.2375
 4829WAT     H114889   6.431   6.309   5.112 -0.0211 -0.2765  0.9566
 4829WAT     H214890   6.531   6.370   5.208  0.9590 -0.6944  0.2195
 4830WAT      O14891   1.761   6.832   5.857 -0.0699  0.4376 -0.0063
 4830WAT     H114892   1.812   6.896   5.808 -2.5266 -0.0974 -3.6504
 4830WAT     H214893   1.687   6.882   5.893 -0.3422  0.1828 -0.2017
 4831WAT      O14894   0.934   0.706   5.770  0.0273  0.2960 -0.0975
 4831WAT     H114895   0.911   0.794   5.742 -0.9268 -0.0314 -0.3757
 4831WAT     H214896   1.016   0.717   5.819  2.1408  0.8167 -3.4298
 4832WAT      O14897   5.785   3.997   1.679 -0.4344 -0.1346 -0.1278
 4832WAT     H114898   5.803   3.977   1.771  0.8562  0.7689 -0.1440
 4832WAT     H214899   5.757   4.088   1.680  2.0092  0.7166 -0.8075
 4833WAT      O14900   0.909   5.279   4.333 -0.2479 -0.0340 -0.1608
 4833WAT     H114901   0.989   5.317   4.298  0.1548 -0.3640  0.3813
 4833WAT     H214902   0.861   5.354   4.369 -1.2274  0.4978 -2.3853
 4834WAT      O14903   5.218   5.755   6.052  0.3658  0.1301  0.0233
 4834WAT     H114904   5.246   5.669   6.083  0.6542  0.0456 -0.4648
 4834WAT     H214905   5.181   5.797   6.130  1.2258 -0.0215  0.5381
 4835WAT      O14906   7.025   0.614   3.950  0.2814 -0.2481  0.4691
 4835WAT     H114907   6.991   0.701   3.927  2.0147  0.2947 -0.2468
 4835WAT     H214908   6.949   0.556   3.944 -0.7959  1.1223  0.3912
 4836WAT      O14909   4.058   3.093   3.360  0.0068  0.4450 -0.3706
 4836WAT     H114910   4.010   3.070   3.280 -0.3616  0.2354 -0.0899
 4836WAT     H214911   4.068   3.010   3.406  1.7852  0.2345 -1.0330
 4837WAT      O14912   0.747   5.432   4.530 -0.3016  0.1627  0.0162
 4837WAT     H114913   0.827   5.429   4.583  0.1339 -0.0474 -0.6364
 4837WAT     H214914   0.682   5.386   4.582 -0.2644  1.1593  0.9815
 4838WAT      O14915   6.289   2.314   5.979  0.0408 -0.2648  0.6106
 4838WAT     H114916   6.371   2.363   5.967  0.2520 -1.0317 -1.3376
 4838WAT     H214917   6.310   2.252   6.049  0.0764  1.6698  2.4106
 4839WAT      O14918   1.160   0.119   0.555  0.4753  0.7708  0.3270
 4839WAT     H114919   1.105   0.069   0.616  1.6212  2.2682  2.7239
 4839WAT     H214920   1.154   0.209   0.586  1.7805  1.4657 -1.3020
 4840WAT      O14921   6.721   5.646   2.236  0.6825 -0.1327 -0.2418
 4840WAT     H114922   6.797   5.591   2.254 -0.8091 -1.7512  1.5599
 4840WAT     H214923   6.757   5.734   2.226  2.7669 -0.7935  0.8486
 4841WAT      O14924   3.282   0.316   2.411  0.2009 -0.6797  0.1562
 4841WAT     H114925   3.275   0.352   2.499 -0.9630 -0.5216  0.0061
 4841WAT     H214926   3.239   0.380   2.355 -0.8349 -1.7131 -0.2640
 4842WAT      O14927   3.976   2.654   0.563  0.0816 -0.2445 -0.2303
 4842WAT     H114928   4.043   2.706   0.519 -0.7729 -0.7920 -2.3064
 4842WAT     H214929   3.950   2.707   0.639  2.3581  0.2608  0.2633
 4843WAT      O14930   1.987   0.279   1.938  0.1878 -0.4517 -0.0632
 4843WAT     H114931   1.912   0.336   1.924 -0.3907 -1.3741 -0.8468
 4843WAT     H214932   1.992   0.270   2.034 -0.6266 -0.2835  0.0056
 4844WAT      O14933   2.422   5.802   1.467  0.9029 -0.1432 -0.0375
 4844WAT     H114934   2.343   5.755   1.440  0.9988  0.8040 -2.0917
 4844WAT     H214935   2.391   5.865   1.532  0.3955 -1.4315  1.0120
 4845WAT      O14936   3.247   0.142   0.481  0.4452 -0.5848 -0.1390
 4845WAT     H114937   3.257   0.064   0.535  0.3151 -0.6422 -0.1961
 4845WAT     H214938   3.306   0.128   0.407 -0.3085 -1.0872 -0.6600
 4846WAT      O14939   6.154   5.113   0.881 -0.1143 -0.0901 -0.1124
 4846WAT     H114940   6.065   5.078   0.875  0.5085 -1.6142 -1.1919
 4846WAT     H214941   6.186   5.082   0.966 -0.5308  0.2882  0.1887
 4847WAT      O14942   5.765   1.118   0.064  0.0097 -0.1733  0.2059
 4847WAT     H114943   5.824   1.043   0.064  0.2923  0.0462  0.3441
 4847WAT     H214944   5.734   1.124   0.154  2.3512  1.6956  1.0072
 4848WAT      O14945   4.671   2.095   3.899 -0.2424 -0.5423 -0.6791
 4848WAT     H114946   4.752   2.080   3.947 -0.4153 -1.5535 -0.6807
 4848WAT     H214947   4.661   2.018   3.842 -1.1685 -0.4130 -0.7199
 4849WAT      O14948   0.617   6.217   2.919 -0.5564  0.3217  0.5812
 4849WAT     H114949   0.600   6.226   3.013 -0.1410 -0.7046  0.7706
 4849WAT     H214950   0.711   6.234   2.910 -0.6311  0.6006  0.3223
 4850WAT      O14951   3.290   7.010   1.172 -0.1453 -0.1729 -0.3885
 4850WAT     H114952   3.317   7.096   1.205  1.4530 -0.7184 -0.1580
 4850WAT     H214953   3.208   7.026   1.126  0.1046  1.4692 -0.3230
 4851WAT      O14954   4.462   0.841   5.076 -0.1353  0.6577  0.4780
 4851WAT     H114955   4.414   0.822   4.996  0.2055  1.4428  0.0741
 4851WAT     H214956   4.414   0.795   5.145 -1.6435  1.6630  0.1340
 4852WAT      O14957   2.403   0.809   0.241  0.4930 -0.2154 -0.0324
 4852WAT     H114958   2.339   0.759   0.291  0.0661 -1.2144 -1.5117
 4852WAT     H214959   2.486   0.795   0.286 -0.0422 -0.2738  0.9458
 4853WAT      O14960   4.855   4.449   3.780  0.7121 -0.4260  0.2914
 4853WAT     H114961   4.769   4.423   3.749 -0.6139  2.5613  1.1236
 4853WAT     H214962   4.911   4.446   3.702 -1.1091  1.2072 -1.1705
 4854WAT      O14963   3.504   6.744   1.529  0.0265 -0.1727 -0.3958
 4854WAT     H114964   3.433   6.736   1.593  0.9019 -1.5094  0.4604
 4854WAT     H214965   3.566   6.804   1.570 -0.4269  0.7470 -1.0095
 4855WAT      O14966   0.873   5.351   5.104 -0.1819  0.0237  0.2518
 4855WAT     H114967   0.908   5.439   5.095 -0.5083 -0.0126 -2.0453
 4855WAT     H214968   0.878   5.332   5.198 -1.5600  3.0555  1.0442
 4856WAT      O14969   1.203   6.362   1.059 -0.3373 -0.3509 -0.2707
 4856WAT     H114970   1.176   6.453   1.063 -1.0058 -0.4241 -2.0778
 4856WAT     H214971   1.138   6.315   1.112  0.5282  0.2774  1.4246
 4857WAT      O14972   3.106   0.913   6.060  0.7068 -0.4226 -0.3904
 4857WAT     H114973   3.184   0.869   6.028  0.3413 -0.3964 -1.3505
 4857WAT     H214974   3.111   0.904   6.155  1.3082 -1.3850 -0.4980
 4858WAT      O14975   5.482   5.972   3.677 -0.3562 -0.1540 -0.1668
 4858WAT     H114976   5.429   5.932   3.746  0.4762 -1.4035 -0.2232
 4858WAT     H214977   5.430   5.962   3.597 -0.6262 -0.1495  0.0089
 4859WAT      O14978   0.032   4.012   0.322  0.0414  0.2328 -0.4741
 4859WAT     H114979  -0.010   4.072   0.384  1.4987  0.8151  0.0022
 4859WAT     H214980   0.094   4.066   0.274 -1.2412 -0.1564 -2.6825
 4860WAT      O14981   2.837   1.516   0.111 -0.2651 -0.2929  0.2743
 4860WAT     H114982   2.903   1.499   0.045 -2.2040 -3.3403 -1.0979
 4860WAT     H214983   2.876   1.485   0.193  0.3509 -1.1832 -0.3394
 4861WAT      O14984   6.590   1.553   2.203  0.1512 -1.0798 -0.4254
 4861WAT     H114985   6.617   1.631   2.252 -1.7778  0.0477 -1.0417
 4861WAT     H214986   6.555   1.493   2.269 -0.7272 -0.3267 -0.1799
 4862WAT      O14987   1.215   2.479   3.687 -0.0257 -0.2261  0.0972
 4862WAT     H114988   1.226   2.387   3.713 -0.4768 -0.1938  0.3987
 4862WAT     H214989   1.260   2.485   3.602  1.7131 -0.2712  0.9634
 4863WAT      O14990   2.469   4.720   4.866  0.2629 -0.0821  0.4145
 4863WAT     H114991   2.503   4.758   4.947 -0.5340 -0.4946  0.9508
 4863WAT     H214992   2.451   4.628   4.887 -1.9133  0.2880  0.4032
 4864WAT      O14993   4.161   1.675   3.934  0.1556  0.1540 -0.1116
 4864WAT     H114994   4.104   1.731   3.987  0.4156  0.5651 -0.2551
 4864WAT     H214995   4.243   1.671   3.982  0.2262  0.1148 -0.2340
 4865WAT      O14996   3.350   5.884   3.823  0.1136 -0.4395  0.5317
 4865WAT     H114997   3.325   5.797   3.855 -0.3871  0.3650  2.4489
 4865WAT     H214998   3.273   5.916   3.776 -0.3763 -0.3132  1.4009
 4866WAT      O14999   5.466   1.220   2.972  1.0127 -0.3018  0.1041
 4866WAT     H115000   5.556   1.216   3.005  0.5053  0.8797  1.8109
 4866WAT     H215001   5.450   1.314   2.961  0.2099 -0.5458 -0.8629
 4867WAT      O15002   5.472   0.789   3.563  0.3515  0.0341 -0.3517
 4867WAT     H115003   5.522   0.851   3.614 -0.0673 -0.1603  0.3128
 4867WAT     H215004   5.507   0.703   3.588  1.0899  0.0075 -1.4403
 4868WAT      O15005   5.740   3.692   0.044 -0.0528 -0.2777  0.6254
 4868WAT     H115006   5.724   3.786   0.035 -1.7876 -0.3657  2.1412
 4868WAT     H215007   5.684   3.651  -0.022 -0.8486 -0.2942  1.2887
 4869WAT      O15008   7.093   7.218   3.261  0.2014  0.1059 -0.1890
 4869WAT     H115009   7.033   7.212   3.336  0.6080 -1.0164  0.0643
 4869WAT     H215010   7.156   7.148   3.275  1.6881  1.3544 -0.3681
 4870WAT      O15011   4.917   4.018   5.459  0.2382  0.7386 -0.5540
 4870WAT     H115012   4.822   4.030   5.454  0.2530  0.5079 -1.8249
 4870WAT     H215013   4.934   3.991   5.549 -0.7885  1.7020 -0.0527
 4871WAT      O15014   2.171   2.306   1.698 -0.2222 -0.0718 -0.6402
 4871WAT     H115015   2.153   2.324   1.605  0.5113  2.1140 -0.4100
 4871WAT     H215016   2.255   2.261   1.698 -1.0982 -1.8063 -1.1092
 4872WAT      O15017   1.407   2.189   0.045 -0.6551 -0.0802 -0.3868
 4872WAT     H115018   1.419   2.117   0.107  0.1389 -0.8453 -1.3762
 4872WAT     H215019   1.454   2.263   0.084 -0.2883 -0.5083 -0.0071
 4873WAT      O15020   0.138   2.597   5.103 -0.1277 -0.2465  0.5589
 4873WAT     H115021   0.200   2.598   5.176  1.3828 -0.7652 -0.6502
 4873WAT     H215022   0.117   2.689   5.087  0.2197 -0.0731  1.0917
 4874WAT      O15023   2.406   6.062   3.561  0.6615 -0.6106 -0.0326
 4874WAT     H115024   2.457   5.989   3.525  0.1150 -1.5177  0.9753
 4874WAT     H215025   2.315   6.038   3.546  0.4744  0.0318  0.0176
 4875WAT      O15026   7.550   2.970   4.401 -0.2384 -0.0126 -0.2435
 4875WAT     H115027   7.594   2.888   4.424  0.1738  0.5464  1.0289
 4875WAT     H215028   7.522   3.007   4.485 -0.5055  1.1014 -0.8033
 4876WAT      O15029   5.065   3.699   0.895  0.2712  0.7677 -0.4576
 4876WAT     H115030   5.103   3.632   0.951 -0.5115 -0.2030 -1.0577
 4876WAT     H215031   5.013   3.754   0.955  2.7711  2.3387  0.4392
 4877WAT      O15032   3.145   4.410   1.736  0.8547  0.0191  0.2068
 4877WAT     H115033   3.215   4.425   1.800  1.0078  1.8896 -0.3241
 4877WAT     H215034   3.124   4.498   1.704 -1.5998 -0.5172  0.1925
 4878WAT      O15035   2.447   6.991   1.232 -0.5569  0.1694 -0.2698
 4878WAT     H115036   2.512   7.036   1.177 -1.8863  0.5905 -1.5537
 4878WAT     H215037   2.491   6.910   1.258  0.6690  0.6769 -0.6616
 4879WAT      O15038   2.216   1.148   4.940  0.0274 -0.3940 -0.2864
 4879WAT     H115039   2.137   1.107   4.976 -0.0695  0.0397 -0.0036
 4879WAT     H215040   2.238   1.217   5.002  1.0533 -0.9632  0.0181
 4880WAT      O15041   2.794   0.087   0.221 -0.4509  0.1713 -0.5363
 4880WAT     H115042   2.734   0.018   0.192 -0.7917 -0.7148  2.0560
 4880WAT     H215043   2.736   0.159   0.245 -0.2000  0.6999 -1.4593
 4881WAT      O15044   2.177   7.136   0.773  0.3041 -0.0852 -1.0270
 4881WAT     H115045   2.088   7.107   0.751 -1.7723  3.7013  1.2313
 4881WAT     H215046   2.207   7.074   0.840 -0.6753 -1.3148 -1.6867
 4882WAT      O15047   6.088   2.949   1.101  0.3670 -0.2061  0.5585
 4882WAT     H115048   6.022   2.920   1.164 -1.1777 -0.4912 -1.1034
 4882WAT     H215049   6.146   2.873   1.091  1.4049  0.2524  2.4929
 4883WAT      O15050   5.557   0.100   2.641  0.7572  0.5979 -0.0692
 4883WAT     H115051   5.472   0.076   2.677  1.3087 -0.9541  0.2778
 4883WAT     H215052   5.612   0.114   2.718  1.1113  0.4523 -0.2954
 4884WAT      O15053   1.333   0.139   5.958 -0.6249  0.6451  0.2584
 4884WAT     H115054   1.337   0.234   5.952  2.1144  0.7561  2.0461
 4884WAT     H215055   1.305   0.121   6.048 -1.1383 -0.2484 -0.0634
 4885WAT      O15056   3.730   1.676   1.598 -0.2926  0.0076 -0.0203
 4885WAT     H115057   3.687   1.671   1.684  1.5445 -0.0836  0.9440
 4885WAT     H215058   3.790   1.749   1.606  0.8465 -0.8215 -0.7819
 4886WAT      O15059   3.306   6.501   5.433 -0.1038  0.4214  0.2343
 4886WAT     H115060   3.395   6.468   5.418 -0.8692 -1.2831 -0.8641
 4886WAT     H215061   3.315   6.561   5.507  2.4385  2.5568 -1.6167
 4887WAT      O15062   2.933   4.676   3.485  0.1513 -0.0068 -0.4058
 4887WAT     H115063   2.856   4.661   3.430 -0.9215  0.6705  0.8714
 4887WAT     H215064   2.954   4.589   3.521  0.4486 -0.3271 -1.3252
 4888WAT      O15065   1.967   3.867   3.999 -0.0286  0.4464 -0.5337
 4888WAT     H115066   1.878   3.901   4.003 -0.2516 -0.0538 -1.1843
 4888WAT     H215067   2.018   3.928   4.054 -0.5352  1.4689 -1.1736
 4889WAT      O15068   1.744   2.767   3.753 -0.1801 -0.5230  0.1640
 4889WAT     H115069   1.830   2.736   3.724 -0.5072  0.0167 -1.4776
 4889WAT     H215070   1.762   2.851   3.795  0.3927 -1.6587  2.3397
 4890WAT      O15071   7.511   5.878   1.613  0.1172 -0.1845 -0.0138
 4890WAT     H115072   7.435   5.933   1.599 -0.6525 -1.1113  0.4466
 4890WAT     H215073   7.553   5.872   1.526 -0.8945 -0.4820 -0.4911
 4891WAT      O15074   3.467   4.046   1.078  0.2277 -0.5723  0.3119
 4891WAT     H115075   3.390   4.042   1.134 -0.6936  1.6101 -0.6936
 4891WAT     H215076   3.509   3.960   1.090 -1.0913 -1.0029  2.5975
 4892WAT      O15077   3.044   1.035   2.868  0.4831 -0.0865 -0.4448
 4892WAT     H115078   3.108   1.011   2.935  1.2564 -2.5116 -1.9135
 4892WAT     H215079   3.096   1.063   2.793 -0.0547 -2.0986 -1.6659
 4893WAT      O15080   5.211   1.738   3.093  0.0576 -0.1089  0.0696
 4893WAT     H115081   5.225   1.771   3.181 -0.6229 -0.2982  0.2538
 4893WAT     H215082   5.191   1.645   3.104 -3.2633  0.4627  0.0656
 4894WAT      O15083   3.876   2.737   2.461  0.6618  0.3018 -0.0781
 4894WAT     H115084   3.874   2.731   2.365  3.3079 -0.6525 -0.1677
 4894WAT     H215085   3.939   2.806   2.479  0.0491  0.5981  1.0012
 4895WAT      O15086   2.553   0.861   2.188  0.0786  0.2216  0.2550
 4895WAT     H115087   2.563   0.919   2.112  1.5840  0.9477  0.9526
 4895WAT     H215088   2.628   0.801   2.182 -2.1082 -2.5934 -1.1516
 4896WAT      O15089   1.815   4.535   1.901  0.2027  0.3646  0.0861
 4896WAT     H115090   1.821   4.601   1.831 -0.7506 -0.4018 -0.7420
 4896WAT     H215091   1.796   4.586   1.980 -1.0488  1.0546 -0.6355
 4897WAT      O15092   0.226   4.409   3.402 -0.5216  0.5802 -0.0254
 4897WAT     H115093   0.274   4.370   3.476  0.2235  1.3363 -0.0864
 4897WAT     H215094   0.136   4.380   3.414 -0.2059 -0.2214  0.5547
 4898WAT      O15095   1.232   1.068   3.895 -0.9537 -0.2336  0.6739
 4898WAT     H115096   1.188   0.984   3.901 -0.4172 -0.4901  1.1957
 4898WAT     H215097   1.220   1.107   3.982 -1.1049  0.1763  0.4692
 4899WAT      O15098   0.960   3.851   2.352  0.4669 -0.1865 -0.0436
 4899WAT     H115099   0.984   3.914   2.419  3.9067  0.1638 -1.3999
 4899WAT     H215100   0.981   3.766   2.390  0.9769 -0.0963 -0.1173
 4900WAT      O15101   4.456   7.192   2.348 -0.0280  0.4645  0.0503
 4900WAT     H115102   4.414   7.263   2.301 -1.5286  0.1225  0.8050
 4900WAT     H215103   4.425   7.201   2.438 -1.2760 -1.8195 -0.0641
 4901WAT      O15104   2.145   5.015   0.317 -0.5611 -1.2370 -0.0181
 4901WAT     H115105   2.170   4.930   0.281 -3.5373 -1.7125 -1.2673
 4901WAT     H215106   2.094   5.057   0.248 -1.8083  0.2414  1.6813
 4902WAT      O15107   1.476   0.873   5.391 -0.5050  0.4270  0.2161
 4902WAT     H115108   1.554   0.917   5.425  0.0813 -0.4585  0.0403
 4902WAT     H215109   1.486   0.782   5.417 -0.7127 -0.0143 -1.1623
 4903WAT      O15110   0.468   6.575   0.279 -0.0424  0.2978  0.2001
 4903WAT     H115111   0.445   6.514   0.208  0.4244  0.0078  0.2930
 4903WAT     H215112   0.549   6.540   0.315  0.1728  0.9224  0.3259
 4904WAT      O15113   1.343   0.250   2.852  0.1307 -0.8030  0.2142
 4904WAT     H115114   1.378   0.334   2.884 -0.6901 -0.3441 -0.0769
 4904WAT     H215115   1.418   0.209   2.808  0.3334  0.1370 -0.3479
 4905WAT      O15116   7.143   5.643   6.226 -0.1373  0.2816  0.0564
 4905WAT     H115117   7.075   5.703   6.195  1.2435  0.9277 -1.9724
 4905WAT     H215118   7.119   5.558   6.188  0.2145  0.5341 -0.7582
 4906WAT      O15119   5.599   5.884   3.281 -0.0636  0.7913 -0.5251
 4906WAT     H115120   5.589   5.814   3.345 -0.7742  1.6633  0.3515
 4906WAT     H215121   5.679   5.862   3.234  0.4630  0.1126  0.6450
 4907WAT      O15122   7.240   1.054   1.895 -0.1724 -0.5477  0.0868
 4907WAT     H115123   7.208   0.991   1.960 -1.1413 -1.3174 -1.0863
 4907WAT     H215124   7.317   1.011   1.856  0.5308  0.0005  0.8360
 4908WAT      O15125   4.677   3.675   4.102  0.2433  0.1257 -0.1848
 4908WAT     H115126   4.695   3.705   4.013  1.0550 -1.1515 -0.4778
 4908WAT     H215127   4.670   3.580   4.095  1.2471 -0.0948  1.2589
 4909WAT      O15128   6.962   4.864   1.014  0.3940  0.4344 -0.4229
 4909WAT     H115129   6.970   4.867   1.109 -0.5928 -0.6155 -0.3002
 4909WAT     H215130   7.030   4.924   0.983 -0.0291  1.6898  0.9696
 4910WAT      O15131   0.761   4.909   2.313 -0.3664  0.0932  0.5182
 4910WAT     H115132   0.850   4.927   2.343 -1.3939  1.4370  3.1578
 4910WAT     H215133   0.727   4.994   2.286 -0.6989 -0.5134 -1.1054
 4911WAT      O15134   4.166   0.720   4.772 -0.2635 -0.3638  0.1754
 4911WAT     H115135   4.254   0.686   4.758  0.1423 -0.2746  2.1875
 4911WAT     H215136   4.115   0.643   4.797 -0.5849 -0.2962 -0.2638
 4912WAT      O15137   2.027   6.740   1.820 -0.2616  0.4578  0.1820
 4912WAT     H115138   2.014   6.815   1.877 -0.7508 -0.3602  1.1804
 4912WAT     H215139   2.095   6.688   1.863  0.5552  0.6385 -0.8407
 4913WAT      O15140   4.185   3.057   4.610 -0.5815 -0.1942  0.3970
 4913WAT     H115141   4.105   3.102   4.582  0.0302 -0.3221 -1.6966
 4913WAT     H215142   4.250   3.080   4.544  1.3331  0.4300  2.3843
 4914WAT      O15143   4.252   6.332   1.757 -0.3690  0.3801 -0.1774
 4914WAT     H115144   4.302   6.353   1.836 -0.2416  0.9351 -0.4000
 4914WAT     H215145   4.177   6.390   1.760 -1.4442 -0.9887  0.5535
 4915WAT      O15146   1.901   6.985   6.141  0.3765 -0.3846 -0.1368
 4915WAT     H115147   1.913   6.907   6.195  1.2529  0.2571  0.6356
 4915WAT     H215148   1.989   7.006   6.110  0.1594  0.3314 -0.2801
 4916WAT      O15149   4.367   6.756   3.643 -0.2537 -0.7311  0.2026
 4916WAT     H115150   4.417   6.691   3.693  1.2362  1.0544  1.1464
 4916WAT     H215151   4.428   6.784   3.575 -0.6005  0.2272  0.2854
 4917WAT      O15152   6.870   3.991   5.839  0.0601 -0.0288  0.2420
 4917WAT     H115153   6.893   3.956   5.925 -1.1291  1.1439  1.0930
 4917WAT     H215154   6.910   4.078   5.836  0.3629 -0.1853 -0.5316
 4918WAT      O15155   7.143   1.605   0.986 -0.5114  0.6002  0.1008
 4918WAT     H115156   7.165   1.575   0.898 -0.1031  0.7316  0.1539
 4918WAT     H215157   7.057   1.568   1.004 -0.4015  0.1982 -0.1812
 4919WAT      O15158   0.117   5.958   3.403  0.3057 -0.9117  0.0242
 4919WAT     H115159   0.149   5.882   3.452  1.0468 -0.8695 -0.3711
 4919WAT     H215160   0.170   5.958   3.323 -0.6906 -0.8157 -0.6442
 4920WAT      O15161   2.735   0.779   4.905  0.4887  0.6039  0.1811
 4920WAT     H115162   2.776   0.752   4.823 -0.1152 -1.8432  0.5946
 4920WAT     H215163   2.657   0.723   4.912 -0.1227  1.5964  1.8453
 4921WAT      O15164   3.733   0.353   3.677 -0.1793  0.0625  0.3541
 4921WAT     H115165   3.823   0.345   3.710  0.1306 -1.0232 -0.7039
 4921WAT     H215166   3.681   0.372   3.755  0.9619  0.7577  0.9789
 4922WAT      O15167   0.786   6.378   4.441 -0.2596 -0.0926  0.1949
 4922WAT     H115168   0.746   6.313   4.497 -0.3898 -1.4175 -1.3573
 4922WAT     H215169   0.876   6.348   4.428 -1.1545 -1.8622 -3.0668
 4923WAT      O15170   0.557   1.024   1.846  0.1657  0.6733 -0.0735
 4923WAT     H115171   0.564   0.991   1.936 -1.2866  1.1657  0.2648
 4923WAT     H215172   0.551   0.946   1.792  0.3282  0.3702  0.3405
 4924WAT      O15173   0.489   3.542   4.624 -1.1015  0.3115  0.2554
 4924WAT     H115174   0.483   3.501   4.538  1.5103  1.3632 -0.4980
 4924WAT     H215175   0.461   3.473   4.685  3.5464 -3.0836 -0.8585
 4925WAT      O15176   3.414   2.588   1.159 -0.1425 -0.0948  0.0652
 4925WAT     H115177   3.416   2.665   1.216  1.2874 -0.0984  0.0618
 4925WAT     H215178   3.400   2.514   1.219  1.1319 -0.0750  0.4166
 4926WAT      O15179   7.295   0.586   1.891 -0.1888 -0.3769  0.0778
 4926WAT     H115180   7.389   0.592   1.911  0.3338 -2.1338 -1.4819
 4926WAT     H215181   7.292   0.542   1.806 -2.4223  0.4604 -0.3380
 4927WAT      O15182   5.315   2.519   1.462 -0.2754  0.6046 -0.6748
 4927WAT     H115183   5.326   2.528   1.556 -1.5000  1.9461 -0.6127
 4927WAT     H215184   5.398   2.548   1.425 -0.4543  2.0059 -0.0474
 4928WAT      O15185   3.834   5.369   4.899  0.2528 -0.2683  0.1850
 4928WAT     H115186   3.843   5.458   4.931 -0.0754 -0.3596  0.5346
 4928WAT     H215187   3.917   5.327   4.919  0.5538  0.0641 -0.3318
 4929WAT      O15188   7.582   2.054   4.233  0.3248 -0.0376 -0.1759
 4929WAT     H115189   7.508   2.090   4.280 -0.1778  0.2418 -1.1540
 4929WAT     H215190   7.544   1.995   4.168  1.0225 -0.7330  0.0227
 4930WAT      O15191   0.908   3.396   2.749 -0.4881 -1.2490 -0.5473
 4930WAT     H115192   0.992   3.361   2.718  1.4432  2.1756  0.2741
 4930WAT     H215193   0.916   3.394   2.844  0.4904  2.4912 -0.3719
 4931WAT      O15194   0.191   1.687   4.042  0.4263  0.5628 -0.1346
 4931WAT     H115195   0.217   1.669   4.132  1.2189  0.3990 -0.3912
 4931WAT     H215196   0.200   1.781   4.032  1.9428  0.4040 -0.5159
 4932WAT      O15197   4.663   2.507   1.126 -0.3354 -0.3164  0.0997
 4932WAT     H115198   4.702   2.594   1.130  0.0507 -0.3180 -2.0661
 4932WAT     H215199   4.735   2.447   1.143 -0.6711 -0.2643  1.9440
 4933WAT      O15200   1.492   0.549   4.241  0.4831 -0.1315  0.3481
 4933WAT     H115201   1.444   0.502   4.173  0.7345 -2.0288  1.3975
 4933WAT     H215202   1.574   0.575   4.199  0.3739 -0.7284 -0.2628
 4934WAT      O15203   2.589   4.394   1.533 -0.0421  0.1752  0.9335
 4934WAT     H115204   2.525   4.407   1.603  1.2108 -1.5352  2.4744
 4934WAT     H215205   2.643   4.321   1.562  0.9178 -0.2290 -1.5711
 4935WAT      O15206   6.396   3.582   3.625 -0.0369 -0.3384  0.2559
 4935WAT     H115207   6.368   3.551   3.711 -2.7063 -0.1132 -0.4582
 4935WAT     H215208   6.317   3.619   3.586  1.0245 -0.6959 -2.4163
 4936WAT      O15209   1.795   6.033   0.011 -0.6961  0.2590 -0.1005
 4936WAT     H115210   1.767   6.064   0.097  1.7809 -2.3780  1.8732
 4936WAT     H215211   1.882   6.072  -0.001 -0.9230  0.4217 -1.3268
 4937WAT      O15212   4.556   4.521   1.101 -0.6406  0.3060  0.7014
 4937WAT     H115213   4.585   4.446   1.153 -0.8087 -0.8565 -0.8253
 4937WAT     H215214   4.461   4.510   1.095 -0.4011 -0.9545 -1.8201
 4938WAT      O15215   3.176   1.401   2.132  0.1848  0.4771 -0.0739
 4938WAT     H115216   3.144   1.370   2.047  1.6566  0.0199 -0.4855
 4938WAT     H215217   3.269   1.420   2.117  0.4691  0.3528  1.4491
 4939WAT      O15218   6.324   0.748   4.556 -0.5944  0.5294 -0.0474
 4939WAT     H115219   6.329   0.841   4.577 -1.1110  1.0824 -2.1713
 4939WAT     H215220   6.378   0.705   4.623 -0.4404  2.3241  1.0294
 4940WAT      O15221   3.843   7.153   5.214  0.5231 -0.4624  0.5274
 4940WAT     H115222   3.834   7.060   5.234  1.3136  0.0169  3.7190
 4940WAT     H215223   3.774   7.196   5.265 -0.6835  0.7109 -1.8869
 4941WAT      O15224   1.573   4.425   4.972 -0.0222  0.1089  0.1292
 4941WAT     H115225   1.623   4.357   5.016  1.3355  0.6072 -0.5828
 4941WAT     H215226   1.521   4.465   5.041  0.4958 -0.4946  0.8789
 4942WAT      O15227   5.685   2.961   2.326 -0.5030  0.3021 -0.2237
 4942WAT     H115228   5.669   2.916   2.409 -0.3428  0.7875  0.0721
 4942WAT     H215229   5.734   2.897   2.273 -1.6702 -0.4628 -0.4073
 4943WAT      O15230   6.294   0.041   1.181  0.5392 -0.5537  0.4736
 4943WAT     H115231   6.222   0.103   1.193  1.5457  0.6126  0.5971
 4943WAT     H215232   6.325   0.022   1.270  0.7922 -0.5659  0.3843
 4944WAT      O15233   0.455   5.310   2.922  0.1115  0.0496  0.3228
 4944WAT     H115234   0.367   5.320   2.957 -0.3998 -1.3292 -0.4860
 4944WAT     H215235   0.496   5.246   2.980 -0.2070 -1.0386 -0.6274
 4945WAT      O15236   3.875   0.010   2.059 -0.2269  0.1467  0.4620
 4945WAT     H115237   3.953   0.066   2.065  0.3258 -0.5766  0.2312
 4945WAT     H215238   3.893  -0.048   1.985 -1.2952  0.4122 -0.0199
 4946WAT      O15239   3.180   6.416   6.130 -0.1744  0.4252 -0.1903
 4946WAT     H115240   3.107   6.366   6.094  0.2860  0.2728 -0.9201
 4946WAT     H215241   3.140   6.470   6.198 -0.5508 -1.5945  1.3002
 4947WAT      O15242   0.349   3.414   2.588  0.2090 -0.7354 -0.2057
 4947WAT     H115243   0.300   3.494   2.604  0.2844 -0.8096  0.4310
 4947WAT     H215244   0.422   3.418   2.650 -1.1719 -2.4755  1.6626
 4948WAT      O15245   6.734   6.599   3.102  0.7408  0.0326  0.1308
 4948WAT     H115246   6.726   6.678   3.155  0.5663 -0.4043  0.7722
 4948WAT     H215247   6.645   6.583   3.070  0.3755 -0.9459  1.5548
 4949WAT      O15248   2.002   1.597   1.410  0.3422 -0.0602  0.0192
 4949WAT     H115249   2.074   1.649   1.375 -0.6718  3.2027  2.2927
 4949WAT     H215250   2.043   1.541   1.477  1.3515 -1.8984 -2.0150
 4950WAT      O15251   4.209   6.424   5.696 -0.3469 -0.1756 -0.1223
 4950WAT     H115252   4.217   6.512   5.660 -1.3276  0.0025  0.0747
 4950WAT     H215253   4.254   6.428   5.780  2.8119 -0.8401 -1.6083
 4951WAT      O15254   7.579   1.574   3.825  0.3757  0.2926 -0.3840
 4951WAT     H115255   7.524   1.502   3.795 -1.5636  0.9932  1.3129
 4951WAT     H215256   7.622   1.605   3.745 -0.3248 -1.4043 -1.4819
 4952WAT      O15257   4.962   0.501   1.288 -0.3725  0.2958  0.3791
 4952WAT     H115258   4.992   0.591   1.274 -1.3850  0.8204  1.4534
 4952WAT     H215259   4.885   0.510   1.344  0.0248 -1.2908  1.2378
 4953WAT      O15260   6.126   3.743   4.839 -0.8024  0.1896 -0.2342
 4953WAT     H115261   6.091   3.804   4.904  1.2971 -0.3859  1.5472
 4953WAT     H215262   6.176   3.680   4.891  0.0446 -0.9559 -2.3500
 4954WAT      O15263   2.389   2.173   2.933  0.1324 -0.3769 -0.0123
 4954WAT     H115264   2.416   2.211   3.017 -1.9610  0.7288  0.2230
 4954WAT     H215265   2.356   2.086   2.956  0.1920 -0.3407  0.2174
 4955WAT      O15266   6.124   0.232   6.037  0.0807  0.2053 -0.0767
 4955WAT     H115267   6.145   0.171   5.966 -1.8882 -0.7831  0.1044
 4955WAT     H215268   6.196   0.222   6.099  0.8703 -0.3408 -1.0516
 4956WAT      O15269   3.302   6.227   2.650  0.3156  0.0033  1.0265
 4956WAT     H115270   3.379   6.202   2.701 -1.3204 -1.1949  3.0885
 4956WAT     H215271   3.283   6.149   2.597 -0.2224 -0.2258  1.5405
 4957WAT      O15272   2.829   4.489   0.202 -0.1297  0.1973 -0.3629
 4957WAT     H115273   2.757   4.455   0.256 -1.2074  1.4615 -0.9315
 4957WAT     H215274   2.787   4.511   0.119  1.1802 -0.1705 -1.1328
 4958WAT      O15275   5.204   0.368   0.365  0.2429  0.2026 -0.1732
 4958WAT     H115276   5.219   0.375   0.271 -1.6141 -0.8422 -0.5889
 4958WAT     H215277   5.262   0.297   0.393  0.7503  0.4730 -0.5259
 4959WAT      O15278   6.821   0.028   0.961 -0.4369  0.2001  0.3175
 4959WAT     H115279   6.841   0.023   1.054 -2.1221 -0.5903  0.6790
 4959WAT     H215280   6.876  -0.039   0.921  1.6440  1.7256  0.4204
 4960WAT      O15281   6.169   6.842   6.008 -0.4160  0.2625 -0.2944
 4960WAT     H115282   6.129   6.821   5.923 -0.0270  1.7767 -0.8909
 4960WAT     H215283   6.162   6.762   6.059 -3.2039  0.1291 -0.7605
 4961WAT      O15284   3.029   1.837   1.506  0.1046 -0.2583 -0.2567
 4961WAT     H115285   3.095   1.830   1.438  0.2801  0.3836 -0.1593
 4961WAT     H215286   3.056   1.774   1.573  3.1546  2.9602  1.8831
 4962WAT      O15287   2.355   0.774   5.172  0.3830 -0.3680  0.0089
 4962WAT     H115288   2.411   0.839   5.214 -1.7271  1.3066  0.4511
 4962WAT     H215289   2.345   0.704   5.237 -2.2369  1.8338  2.2189
 4963WAT      O15290   1.460   3.985   4.200  0.4147  0.6482  0.1154
 4963WAT     H115291   1.489   3.910   4.252 -1.6374 -0.3422 -0.0691
 4963WAT     H215292   1.535   4.005   4.143  0.1099 -3.2891 -2.0539
 4964WAT      O15293   2.024   2.216   5.156  0.5187  0.3165 -0.3917
 4964WAT     H115294   1.937   2.249   5.180 -0.0244 -0.3482 -1.3821
 4964WAT     H215295   2.014   2.121   5.155  1.0756  0.2615 -1.1976
 4965WAT      O15296   2.941   4.397   0.757 -0.5109  0.2389 -0.0142
 4965WAT     H115297   2.943   4.441   0.842  0.4558 -1.6844  1.0229
 4965WAT     H215298   3.007   4.329   0.764 -1.4906 -0.9595 -1.7776
 4966WAT      O15299   1.132   2.644   3.870  0.2000  0.2775  0.1434
 4966WAT     H115300   1.172   2.575   3.815 -1.3077 -1.1720  0.7815
 4966WAT     H215301   1.060   2.600   3.915  0.0848  1.9526  1.7014
 4967WAT      O15302   0.654   4.561   2.973 -0.0362  0.2861 -0.3318
 4967WAT     H115303   0.654   4.466   2.969 -1.0505  0.2438  0.2831
 4967WAT     H215304   0.599   4.588   2.899 -0.9774  0.3201  0.3589
 4968WAT      O15305   4.851   4.097   0.556 -0.4286 -0.0522  0.0374
 4968WAT     H115306   4.760   4.071   0.571 -0.1878 -0.7349  0.4120
 4968WAT     H215307   4.900   4.046   0.620  0.2245  0.2749 -0.1947
 4969WAT      O15308   4.093   0.961   6.024 -0.2539  0.5812 -0.2046
 4969WAT     H115309   4.160   1.006   6.075 -1.4189 -0.4291  2.3702
 4969WAT     H215310   4.015   1.014   6.035 -1.3648 -1.3400  1.9530
 4970WAT      O15311   5.084   4.018   0.067 -0.2379 -0.1719  0.0114
 4970WAT     H115312   5.039   4.003   0.150 -0.2142 -1.4606 -0.1999
 4970WAT     H215313   5.064   3.941   0.014  2.1062 -0.7364 -0.1455
 4971WAT      O15314   4.484   5.312   1.503 -0.5253 -0.6778 -0.4388
 4971WAT     H115315   4.490   5.367   1.581 -0.6862 -1.3007  0.0274
 4971WAT     H215316   4.437   5.234   1.533  1.1814 -1.8338 -0.6440
 4972WAT      O15317   0.220   0.419   1.447  0.2912 -0.6664 -0.4925
 4972WAT     H115318   0.163   0.437   1.521 -0.2492 -0.9581 -0.8285
 4972WAT     H215319   0.166   0.441   1.370  0.5857 -1.0743 -0.8164
 4973WAT      O15320   0.927   3.535   4.127 -0.3463 -0.0980 -0.4437
 4973WAT     H115321   0.950   3.473   4.059  0.2565 -0.8613  0.4346
 4973WAT     H215322   0.953   3.492   4.209 -0.6179  0.9900  0.2349
 4974WAT      O15323   6.539   6.325   2.151 -0.3347  0.1096 -0.5501
 4974WAT     H115324   6.562   6.317   2.058  0.9586  0.7163 -0.3054
 4974WAT     H215325   6.473   6.395   2.153 -1.1552 -0.6211 -1.1074
 4975WAT      O15326   0.829   7.051   3.786  0.0812 -0.0430 -0.4711
 4975WAT     H115327   0.869   7.057   3.872 -0.9664 -1.3464  0.1388
 4975WAT     H215328   0.884   7.105   3.730  0.6918  0.9528  1.0353
 4976WAT      O15329   6.544   6.504   0.496 -0.0811 -0.4022 -0.3297
 4976WAT     H115330   6.490   6.533   0.569 -1.6642 -3.5676 -0.0838
 4976WAT     H215331   6.633   6.498   0.531 -0.7891 -1.7194  1.3452
 4977WAT      O15332   6.658   4.644   0.760  0.0367 -0.5937  0.4786
 4977WAT     H115333   6.674   4.607   0.847 -0.9570  0.1567  0.9975
 4977WAT     H215334   6.735   4.698   0.743  0.5686 -1.3011  0.5676
 4978WAT      O15335   6.598   4.631   2.756  0.6619 -0.2648 -0.6071
 4978WAT     H115336   6.548   4.550   2.765 -0.3062  0.2146 -1.3859
 4978WAT     H215337   6.682   4.613   2.797 -0.2425 -1.0213  1.0104
 4979WAT      O15338   7.299   5.449   3.247 -0.3503 -0.1457  0.3943
 4979WAT     H115339   7.233   5.454   3.317 -0.0750 -0.0351  0.6502
 4979WAT     H215340   7.382   5.442   3.294 -0.1132  0.5310  0.0871
 4980WAT      O15341   5.744   3.679   1.147  0.1616  0.1770  0.1208
 4980WAT     H115342   5.691   3.727   1.211 -0.8560 -1.4464  0.5522
 4980WAT     H215343   5.682   3.651   1.080  0.7999 -0.2277 -0.3074
 4981WAT      O15344   4.750   0.828   0.286 -0.5072  0.2108  0.2862
 4981WAT     H115345   4.832   0.840   0.334  0.1993  1.4335 -1.1676
 4981WAT     H215346   4.771   0.766   0.217 -1.4889 -1.4272  1.3904
 4982WAT      O15347   1.949   1.331   5.246 -0.2101 -0.2051  0.4875
 4982WAT     H115348   1.955   1.426   5.247  0.1731 -0.1765  3.1908
 4982WAT     H215349   2.021   1.303   5.189  0.5115  1.0933  0.7213
 4983WAT      O15350   4.960   5.980   0.647 -0.0512 -0.8621 -0.1595
 4983WAT     H115351   4.966   5.890   0.678 -0.3704 -0.9851 -0.4549
 4983WAT     H215352   4.867   5.998   0.641  0.0054 -0.3087  0.4725
 4984WAT      O15353   1.359   1.656   0.194  0.1801 -0.2413  0.9347
 4984WAT     H115354   1.292   1.590   0.212 -1.4197  1.2097  0.5066
 4984WAT     H215355   1.348   1.721   0.263 -0.3257  1.0899 -0.3579
 4985WAT      O15356   6.190   0.997   4.073  0.7447 -0.1623 -0.6089
 4985WAT     H115357   6.184   1.049   4.153  0.0198  0.5975 -1.1363
 4985WAT     H215358   6.118   0.934   4.080  0.5530  0.0408 -0.7603
 4986WAT      O15359   1.552   5.366   0.384 -0.4323 -0.1613 -0.0169
 4986WAT     H115360   1.646   5.369   0.400 -0.2724  0.1112 -0.9629
 4986WAT     H215361   1.512   5.384   0.469  0.3739  1.3464  0.0573
 4987WAT      O15362   3.954   5.726   4.055  0.0153 -0.0723  0.5091
 4987WAT     H115363   3.905   5.794   4.102 -1.2011 -0.2490 -0.4294
 4987WAT     H215364   4.039   5.723   4.099 -0.7778  0.3144  2.1680
 4988WAT      O15365   6.168   6.169   5.924  0.5785 -0.3029 -0.0063
 4988WAT     H115366   6.260   6.166   5.952  0.5384  0.0291  0.1764
 4988WAT     H215367   6.127   6.230   5.985  0.2274 -0.4764 -0.0661
 4989WAT      O15368   4.047   5.452   6.193 -0.3485 -0.4292  0.6011
 4989WAT     H115369   4.127   5.468   6.243 -1.3551  0.5737  1.9893
 4989WAT     H215370   4.053   5.512   6.118 -0.2664  0.4331  1.2785
 4990WAT      O15371   1.975   4.702   0.801  0.0172  0.0026 -0.5180
 4990WAT     H115372   1.926   4.756   0.863  0.8472  0.5682 -0.3426
 4990WAT     H215373   2.065   4.705   0.831  0.2428 -0.6873 -1.0800
 4991WAT      O15374   0.417   3.113   1.987 -0.3953 -0.3977 -0.2000
 4991WAT     H115375   0.412   3.200   2.027 -1.4362 -0.3773 -0.3453
 4991WAT     H215376   0.334   3.104   1.939 -1.5807 -2.5167  1.9946
 4992WAT      O15377   6.268   4.465   4.893  0.3332 -0.1858  0.3370
 4992WAT     H115378   6.235   4.443   4.806 -0.3555 -2.0526  1.0241
 4992WAT     H215379   6.336   4.401   4.911  0.9443  0.5989  0.9131
 4993WAT      O15380   4.097   1.303   5.009 -0.5172  0.2174 -0.6540
 4993WAT     H115381   4.011   1.265   5.027 -0.4609  0.6993  0.7745
 4993WAT     H215382   4.159   1.237   5.040 -0.3333 -0.3714 -2.1908
 4994WAT      O15383   1.442   2.351   1.254 -0.6426  0.3384  0.4361
 4994WAT     H115384   1.456   2.357   1.159 -0.4811  0.4446  0.4661
 4994WAT     H215385   1.387   2.426   1.275 -0.7238  0.2837  0.4179
 4995WAT      O15386   7.554   0.864   5.508  0.7430 -0.1573 -0.2566
 4995WAT     H115387   7.502   0.827   5.437 -1.8296  0.2283  1.2689
 4995WAT     H215388   7.533   0.957   5.507  2.6078  0.2927 -0.4770
 4996WAT      O15389   1.447   2.315   0.816  0.3541  0.6518 -0.0383
 4996WAT     H115390   1.412   2.321   0.727  1.4872 -0.1308 -0.5638
 4996WAT     H215391   1.378   2.273   0.867  0.2191 -0.1931 -0.8876
 4997WAT      O15392   2.481   2.055   2.702 -0.4704 -0.0688  0.3659
 4997WAT     H115393   2.472   2.120   2.773 -0.9646 -1.2234  1.4034
 4997WAT     H215394   2.494   1.972   2.748 -0.0959 -0.7457 -0.9322
 4998WAT      O15395   4.602   1.658   2.944 -0.5544  0.4608  0.6407
 4998WAT     H115396   4.681   1.712   2.949 -0.7413  0.8850 -0.6798
 4998WAT     H215397   4.614   1.592   3.012  1.5251 -0.2614 -0.3459
 4999WAT      O15398   0.495   0.488   1.447  0.0772  0.3557 -0.6498
 4999WAT     H115399   0.400   0.472   1.446 -0.1942  1.1257  2.3109
 4999WAT     H215400   0.504   0.578   1.477  1.7235 -0.3338  1.1717
 5000WAT      O15401   7.413   0.981   0.408  0.0861 -0.1281 -0.1785
 5000WAT     H115402   7.399   0.934   0.490 -1.4566 -0.0477 -0.3595
 5000WAT     H215403   7.477   0.928   0.361  0.7415 -0.3472  0.9342
 5001WAT      O15404   3.935   1.704   3.230 -0.0864 -0.0769  0.0802
 5001WAT     H115405   3.909   1.618   3.262 -0.3502 -0.0944 -0.1872
 5001WAT     H215406   4.031   1.698   3.223 -0.1425 -0.4952 -0.3718
 5002WAT      O15407   5.836   4.765   3.831  0.7005  0.8042  0.2556
 5002WAT     H115408   5.851   4.676   3.863 -0.4649  0.2684 -0.6018
 5002WAT     H215409   5.771   4.802   3.890 -0.3521  0.3357 -0.5784
 5003WAT      O15410   4.975   0.465   3.648  0.9542  0.1168 -0.3386
 5003WAT     H115411   4.915   0.428   3.712  0.0409  1.1608 -0.5576
 5003WAT     H215412   5.040   0.396   3.633  1.3001 -0.0954  1.8222
 5004WAT      O15413   3.990   6.118   0.725 -0.4823  0.0646 -0.6726
 5004WAT     H115414   4.033   6.177   0.787  0.4357 -1.3008  0.0244
 5004WAT     H215415   3.950   6.050   0.779  1.3010 -1.7958 -1.5490
 5005WAT      O15416   3.211   2.800   2.908  0.0115 -0.5630  0.4819
 5005WAT     H115417   3.230   2.804   3.001  1.2518 -0.4188  0.2383
 5005WAT     H215418   3.284   2.751   2.870 -0.1066 -0.0025 -0.5053
 5006WAT      O15419   4.543   3.947   1.005  0.1975  0.1655 -0.0754
 5006WAT     H115420   4.627   3.971   0.965 -1.1674  0.1505 -3.2073
 5006WAT     H215421   4.557   3.858   1.036  0.7726 -0.6981 -2.5803
 5007WAT      O15422   6.457   1.290   0.613  0.3877 -0.3271 -0.3627
 5007WAT     H115423   6.523   1.255   0.672  0.5821  0.7218  0.0446
 5007WAT     H215424   6.503   1.355   0.560 -0.1992  0.0435 -0.4269
 5008WAT      O15425   6.460   4.205   0.550  0.1257  0.2849 -0.1701
 5008WAT     H115426   6.523   4.256   0.601  1.1983 -0.8979 -0.2735
 5008WAT     H215427   6.459   4.119   0.591 -1.4088  0.2568 -0.2036
 5009WAT      O15428   4.379   2.895   5.119 -0.0571 -0.1715  0.0947
 5009WAT     H115429   4.424   2.959   5.173 -1.3036  1.5505 -0.8169
 5009WAT     H215430   4.349   2.944   5.043 -0.8376 -1.9016 -0.7700
 5010WAT      O15431   3.245   2.916   2.596 -0.0612  0.2440 -0.2174
 5010WAT     H115432   3.233   2.841   2.537 -0.1984 -0.5946  0.8319
 5010WAT     H215433   3.162   2.922   2.644  1.4631 -1.9939  3.0664
 5011WAT      O15434   4.440   5.482   6.236 -0.5127  0.2585  0.2932
 5011WAT     H115435   4.516   5.432   6.266 -0.2518 -1.4042 -2.7279
 5011WAT     H215436   4.467   5.574   6.243  1.6724 -0.2741 -0.3715
 5012WAT      O15437   4.344   4.415   5.554  0.3116  0.4143 -0.2173
 5012WAT     H115438   4.280   4.484   5.572 -0.4326 -0.0166 -1.1876
 5012WAT     H215439   4.323   4.346   5.616  0.7871  0.8663  0.4664
 5013WAT      O15440   5.218   5.773   4.589  0.5978 -0.2031 -0.0575
 5013WAT     H115441   5.137   5.812   4.624  1.5909 -0.3145  2.6136
 5013WAT     H215442   5.252   5.721   4.662  3.8680  1.0390 -0.5650
 5014WAT      O15443   2.761   2.110   3.425  0.1209 -0.2877  0.2238
 5014WAT     H115444   2.795   2.150   3.345 -1.1342 -2.8725 -1.7138
 5014WAT     H215445   2.666   2.109   3.414 -0.0494 -1.2711  1.4645
 5015WAT      O15446   3.244   1.302   6.195  0.0352  0.3898 -0.0670
 5015WAT     H115447   3.251   1.298   6.290 -1.6049  1.0885  0.1290
 5015WAT     H215448   3.244   1.396   6.175  0.4339  0.2459 -0.7584
 5016WAT      O15449   0.256   4.489   4.638 -0.3316  0.4019 -0.4784
 5016WAT     H115450   0.300   4.571   4.663 -1.1318  1.0553 -1.1286
 5016WAT     H215451   0.219   4.508   4.552 -0.5621 -0.6475 -0.6242
 5017WAT      O15452   6.901   2.818   2.122 -0.6698  0.3420 -0.2542
 5017WAT     H115453   6.888   2.783   2.210  1.9692 -1.0040 -0.3007
 5017WAT     H215454   6.832   2.778   2.070 -0.2926 -1.4973  0.5830
 5018WAT      O15455   0.476   5.669   4.016  0.2177 -0.5769  0.0400
 5018WAT     H115456   0.403   5.732   4.014  0.0726 -0.6389  1.7661
 5018WAT     H215457   0.438   5.591   4.057  1.1070 -0.8262  0.3965
 5019WAT      O15458   5.068   6.967   1.071  0.2974  0.6682  0.3055
 5019WAT     H115459   5.088   6.880   1.107  0.3270  0.0392 -1.1429
 5019WAT     H215460   5.104   7.028   1.134  0.0270 -0.3768  1.5034
 5020WAT      O15461   3.298   1.451   1.479  0.3002 -0.1315  0.0060
 5020WAT     H115462   3.230   1.477   1.417 -0.0430 -0.9374  0.0360
 5020WAT     H215463   3.367   1.517   1.468  1.0572 -1.2602 -2.5309
 5021WAT      O15464   5.844   2.686   3.376  0.5268 -0.2885  0.2231
 5021WAT     H115465   5.902   2.642   3.439  2.6412  1.1208 -0.6144
 5021WAT     H215466   5.814   2.764   3.422 -3.1767 -2.2855  1.6851
 5022WAT      O15467   3.841   0.752   5.286  0.1776  0.0087 -0.5834
 5022WAT     H115468   3.815   0.660   5.286  2.2880 -0.6935  1.2849
 5022WAT     H215469   3.866   0.770   5.195  1.4727 -1.8749 -0.6699
 5023WAT      O15470   1.245   2.770   2.058 -0.0831  0.0193 -0.2590
 5023WAT     H115471   1.200   2.775   2.143 -1.4376  1.0036 -0.9872
 5023WAT     H215472   1.260   2.862   2.035  2.6767 -0.2693  0.0966
 5024WAT      O15473   6.996   2.688   4.266  0.6190 -0.7567  0.1543
 5024WAT     H115474   6.943   2.766   4.285 -0.0184 -0.1431 -3.4232
 5024WAT     H215475   7.077   2.702   4.316  0.2123  1.8277  0.2254
 5025WAT      O15476   2.372   0.544   5.970  0.3522 -0.2453  0.0209
 5025WAT     H115477   2.451   0.568   6.019 -0.0916  0.7299  0.2857
 5025WAT     H215478   2.331   0.475   6.023  0.4799 -0.0092  0.4331
 5026WAT      O15479   3.859   1.445   3.313 -0.1644 -0.0563 -0.2568
 5026WAT     H115480   3.921   1.473   3.380 -2.6150  1.4501  1.5791
 5026WAT     H215481   3.839   1.354   3.335  0.6668 -0.2535 -0.2992
 5027WAT      O15482   1.029   3.909   5.522  0.2491  0.2371  0.2568
 5027WAT     H115483   0.939   3.904   5.490  0.9342  0.3474 -1.8133
 5027WAT     H215484   1.024   3.875   5.612 -1.9823  1.1060  0.5196
 5028WAT      O15485   3.630   4.445   2.860 -0.6140  0.3627 -0.1790
 5028WAT     H115486   3.582   4.425   2.940 -0.6241  0.6669 -0.1064
 5028WAT     H215487   3.717   4.473   2.891  0.1310 -1.6058 -0.3651
 5029WAT      O15488   4.656   0.625   2.415 -0.0370 -0.5113 -0.4505
 5029WAT     H115489   4.725   0.567   2.384  0.3508  0.4721 -1.5018
 5029WAT     H215490   4.581   0.607   2.357 -1.3622 -2.8809  1.8065
 5030WAT      O15491   7.602   1.817   3.539  0.0114 -0.3823 -0.3608
 5030WAT     H115492   7.609   1.906   3.573  0.8673 -0.0217 -1.3936
 5030WAT     H215493   7.687   1.778   3.558 -0.1719 -0.7960 -0.3924
 5031WAT      O15494   6.202   2.906   1.547 -0.0867 -0.4115 -0.1057
 5031WAT     H115495   6.242   2.843   1.607  1.4200 -0.1471 -0.7850
 5031WAT     H215496   6.271   2.925   1.483 -0.8460  1.1750 -0.4905
 5032WAT      O15497   2.160   5.864   5.689 -0.0111  0.4151  0.4842
 5032WAT     H115498   2.203   5.779   5.679 -0.4815  0.0760  1.2252
 5032WAT     H215499   2.071   5.849   5.656  0.2740  0.9858 -0.6094
 5033WAT      O15500   1.071   3.308   2.394  0.0157 -0.2767  0.5137
 5033WAT     H115501   1.094   3.302   2.487  0.8614 -0.5473  0.2985
 5033WAT     H215502   1.054   3.401   2.380  0.4884 -0.1428  0.8039
 5034WAT      O15503   1.113   3.527   6.214 -0.5052  0.2172 -0.8982
 5034WAT     H115504   1.193   3.578   6.217  0.2684 -0.9510 -0.8205
 5034WAT     H215505   1.043   3.590   6.226  0.4775  1.0308  0.9995
 5035WAT      O15506   3.487   3.287   0.426  0.5158 -0.4868 -0.2945
 5035WAT     H115507   3.408   3.276   0.479 -0.7327  0.8459 -1.7538
 5035WAT     H215508   3.555   3.312   0.488 -0.6218 -0.0810  0.8250
 5036WAT      O15509   2.171   3.575   4.732  0.1959 -0.1789 -0.5036
 5036WAT     H115510   2.105   3.562   4.800  1.0234  2.2455  0.9392
 5036WAT     H215511   2.255   3.565   4.779  0.7913  1.2197 -1.2113
 5037WAT      O15512   7.135   5.902   1.705  0.0406  0.2393 -0.3893
 5037WAT     H115513   7.045   5.898   1.735 -0.3451  1.6426 -1.3025
 5037WAT     H215514   7.182   5.842   1.763 -1.3303  0.0502  0.5640
 5038WAT      O15515   0.751   1.835   0.185 -0.5062  0.2027 -0.3219
 5038WAT     H115516   0.752   1.912   0.241 -0.6535  0.4930 -0.7081
 5038WAT     H215517   0.696   1.861   0.110 -2.6286 -1.0851  0.6853
 5039WAT      O15518   4.424   1.593   4.406 -0.2990 -0.4065  0.2773
 5039WAT     H115519   4.483   1.650   4.454 -0.0121 -0.7475  0.3288
 5039WAT     H215520   4.353   1.575   4.467 -0.4204 -0.0646  0.2428
 5040WAT      O15521   7.106   1.271   1.183  0.3451  0.2968  0.5778
 5040WAT     H115522   7.152   1.341   1.230  0.0528 -0.3180  1.8151
 5040WAT     H215523   7.176   1.224   1.136  0.4393  1.9516 -1.0632
 5041WAT      O15524   6.703   0.845   2.351  0.6560 -0.0993 -0.2645
 5041WAT     H115525   6.632   0.909   2.355 -0.3988 -1.1901 -0.9297
 5041WAT     H215526   6.675   0.775   2.410 -0.5966 -2.2082 -3.1513
 5042WAT      O15527   1.563   7.106   3.474 -0.1142 -0.0301 -1.0515
 5042WAT     H115528   1.539   7.018   3.503 -0.5496  0.0314 -1.2188
 5042WAT     H215529   1.603   7.147   3.551  0.4440 -0.5058 -1.0865
 5043WAT      O15530   2.114   3.787   4.578  0.4096 -0.1046 -0.3895
 5043WAT     H115531   2.024   3.812   4.598  0.1749 -0.2527 -1.2120
 5043WAT     H215532   2.130   3.710   4.632 -0.8716 -1.6714 -2.0907
 5044WAT      O15533   1.709   2.889   0.608 -0.5063  0.0644  0.1570
 5044WAT     H115534   1.798   2.858   0.628 -0.8782  0.0051  1.8273
 5044WAT     H215535   1.675   2.920   0.691 -0.1609  5.1860 -1.2565
 5045WAT      O15536   5.478   1.857   0.254 -0.0145  0.0268 -0.1797
 5045WAT     H115537   5.470   1.845   0.159 -1.4910 -0.1158 -0.0626
 5045WAT     H215538   5.570   1.840   0.273  0.7397  1.9084 -1.8422
 5046WAT      O15539   5.149   6.267   2.805  0.2699  0.0230 -0.1835
 5046WAT     H115540   5.168   6.305   2.891  1.5837 -0.1842 -0.3674
 5046WAT     H215541   5.146   6.172   2.820 -0.6655  0.0385 -0.1690
 5047WAT      O15542   0.001   1.575   6.232  0.3468 -0.0751 -0.4306
 5047WAT     H115543  -0.007   1.562   6.138  0.7460  0.5310 -0.5523
 5047WAT     H215544   0.039   1.493   6.264  0.9465  0.0094 -0.9063
 5048WAT      O15545   6.481   3.181   1.610  0.1015 -0.5653 -0.5276
 5048WAT     H115546   6.401   3.211   1.567  1.9069 -0.5526 -4.3302
 5048WAT     H215547   6.473   3.086   1.611 -0.0685 -0.5529 -0.6486
 5049WAT      O15548   7.376   2.251   0.972 -0.3945  0.2396 -0.2760
 5049WAT     H115549   7.280   2.258   0.979 -0.4195 -0.9656  1.1457
 5049WAT     H215550   7.405   2.231   1.061  1.2790  1.3591 -0.5329
 5050WAT      O15551   7.053   2.505   4.608 -0.3455  0.0067 -0.1731
 5050WAT     H115552   6.998   2.583   4.604  0.4647  0.5719 -0.5458
 5050WAT     H215553   7.026   2.460   4.688 -0.5215  0.9058  0.2831
 5051WAT      O15554   3.293   2.263   1.934 -0.3557  0.4040 -0.7481
 5051WAT     H115555   3.363   2.274   1.869 -1.5951  2.2353 -1.8654
 5051WAT     H215556   3.224   2.218   1.886  0.0647 -1.6241  0.4199
 5052WAT      O15557   5.419   4.208   1.432  0.3446  0.3236  0.0624
 5052WAT     H115558   5.404   4.168   1.518 -1.9720 -2.4918 -1.4662
 5052WAT     H215559   5.503   4.172   1.403 -0.8767 -2.2499 -0.5381
 5053WAT      O15560   0.794   4.942   0.559 -0.2400 -0.0435  0.7481
 5053WAT     H115561   0.724   4.969   0.618  0.0798  1.1466  0.6098
 5053WAT     H215562   0.866   5.002   0.577 -0.1358  0.3535 -0.8488
 5054WAT      O15563   2.937   6.718   0.846 -0.2426  0.2630 -0.1017
 5054WAT     H115564   2.999   6.691   0.913 -0.3174  2.0946  0.7706
 5054WAT     H215565   2.862   6.753   0.895 -0.9458  0.2811 -1.1423
 5055WAT      O15566   1.701   2.006   3.692  0.3909  0.4035 -0.4278
 5055WAT     H115567   1.766   2.019   3.623  0.6832  0.5088 -0.1330
 5055WAT     H215568   1.742   2.040   3.771  0.5022 -0.7448  0.0259
 5056WAT      O15569   4.364   4.829   4.518 -0.1142  0.5060  0.1702
 5056WAT     H115570   4.429   4.874   4.571  0.0488  0.2402  0.1994
 5056WAT     H215571   4.288   4.822   4.575  0.1036  0.1060  0.4161
 5057WAT      O15572   4.609   0.493   2.040  0.3490  0.1376  0.3675
 5057WAT     H115573   4.552   0.528   2.108 -0.2841 -0.1773  0.0139
 5057WAT     H215574   4.632   0.405   2.071  0.6527  0.2673  0.5135
 5058WAT      O15575   5.636   0.091   0.786 -0.2803 -0.2270 -0.2917
 5058WAT     H115576   5.680   0.035   0.850  0.0648  0.4316  0.0508
 5058WAT     H215577   5.547   0.100   0.819 -0.1136  0.0816  0.0844
 5059WAT      O15578   4.823   3.412   1.163 -0.7313  0.2510  0.7724
 5059WAT     H115579   4.756   3.433   1.228 -0.7113 -0.1946  0.9423
 5059WAT     H215580   4.892   3.369   1.213 -0.3813  0.5722  0.5731
 5060WAT      O15581   0.075   3.449   3.202  0.3393 -0.1556 -0.4119
 5060WAT     H115582   0.031   3.519   3.249 -0.4875 -0.4981 -0.6541
 5060WAT     H215583   0.056   3.370   3.253  0.3161 -0.3690 -0.7428
 5061WAT      O15584   0.777   5.978   4.272  0.2633 -0.0243 -0.0308
 5061WAT     H115585   0.739   5.891   4.280 -0.7837  0.1768 -2.1538
 5061WAT     H215586   0.761   6.019   4.357  0.8841 -1.9052  1.0413
 5062WAT      O15587   5.608   4.333   1.170  0.0145 -0.1133 -0.0664
 5062WAT     H115588   5.664   4.389   1.223 -0.4371  0.4597 -0.1866
 5062WAT     H215589   5.606   4.250   1.217  0.4506  0.0628  0.2694
 5063WAT      O15590   3.489   4.646   0.044 -0.4698  0.3179  0.6730
 5063WAT     H115591   3.522   4.723   0.089  0.4553 -0.1454  0.8089
 5063WAT     H215592   3.550   4.632  -0.029 -2.0552  1.1843 -0.9205
 5064WAT      O15593   4.076   4.487   5.261 -0.8558  0.3819 -0.6011
 5064WAT     H115594   4.098   4.396   5.243 -2.7382  0.0414 -1.3977
 5064WAT     H215595   3.981   4.487   5.275 -0.6145  1.8817  1.6947
 5065WAT      O15596   2.224   3.081   5.170 -0.0691  0.0119 -0.4543
 5065WAT     H115597   2.185   3.003   5.212  0.6493 -1.9907 -3.2013
 5065WAT     H215598   2.157   3.110   5.108  1.0129 -0.6699 -1.9843
 5066WAT      O15599   4.965   4.854   3.129  0.1203 -0.0790 -0.1537
 5066WAT     H115600   4.953   4.882   3.220  1.0410  0.1402 -0.0921
 5066WAT     H215601   4.964   4.758   3.133 -0.5378 -0.0710 -0.0154
 5067WAT      O15602   7.636   4.902   5.208 -0.0834 -0.3318  0.2358
 5067WAT     H115603   7.731   4.913   5.204 -0.2579  1.2398 -0.0614
 5067WAT     H215604   7.624   4.812   5.239  1.4752 -1.0491 -1.1039
 5068WAT      O15605   2.280   0.522   3.167 -0.3124  0.4224 -0.1100
 5068WAT     H115606   2.369   0.532   3.201 -0.5118 -0.7403  0.8407
 5068WAT     H215607   2.249   0.612   3.154 -0.9814  1.2878  4.9894
 5069WAT      O15608   4.441   5.398   5.986 -0.1844 -0.6682  0.3062
 5069WAT     H115609   4.417   5.421   6.075 -1.4540  0.9245 -0.4059
 5069WAT     H215610   4.461   5.481   5.944  1.4968 -1.4884 -0.6236
 5070WAT      O15611   1.774   0.144   4.928 -0.1164  0.1173  0.5019
 5070WAT     H115612   1.825   0.225   4.925 -0.7694  0.5157 -0.2783
 5070WAT     H215613   1.727   0.142   4.845 -0.2123 -1.0016  0.5672
 5071WAT      O15614   2.981   6.674   1.886  0.2463  0.0025  0.3438
 5071WAT     H115615   2.973   6.622   1.806 -0.8861 -0.2450  0.5968
 5071WAT     H215616   3.066   6.717   1.879  0.4184 -0.4872 -0.7075
 5072WAT      O15617   2.945   6.189   0.401  0.2998  0.5876 -0.3229
 5072WAT     H115618   2.883   6.132   0.447  1.4881  0.4109  1.1415
 5072WAT     H215619   2.897   6.271   0.388 -0.8773 -0.1790 -0.9886
 5073WAT      O15620   6.121   0.079   3.051  0.4983 -0.0016 -0.2366
 5073WAT     H115621   6.040   0.130   3.048  1.6384  1.9361  0.2577
 5073WAT     H215622   6.106   0.006   2.991 -0.9752  1.2844 -1.5177
 5074WAT      O15623   4.674   1.928   1.601 -0.3553  0.4996 -0.7416
 5074WAT     H115624   4.590   1.955   1.564  0.4568  1.8834 -1.6397
 5074WAT     H215625   4.695   1.847   1.554 -1.9395 -0.7991  0.6720
 5075WAT      O15626   2.808   2.068   0.173 -0.3221  0.9477 -0.9394
 5075WAT     H115627   2.715   2.085   0.188 -1.0577 -2.0229 -1.3965
 5075WAT     H215628   2.822   1.980   0.207  1.8870  0.5899 -2.5392
 5076WAT      O15629   1.181   0.543   1.668  0.1472 -0.3312  0.0734
 5076WAT     H115630   1.114   0.581   1.725 -0.8245 -0.3459 -1.0257
 5076WAT     H215631   1.188   0.452   1.697 -0.2711 -0.3119  0.2470
 5077WAT      O15632   0.763   0.889   1.245 -0.3758  0.0386 -0.0090
 5077WAT     H115633   0.797   0.942   1.317  0.3681 -0.3793 -0.0449
 5077WAT     H215634   0.796   0.801   1.262 -1.6748 -0.4581  0.0983
 5078WAT      O15635   5.448   2.403   4.193  0.1166  0.4961 -0.4412
 5078WAT     H115636   5.527   2.357   4.167  0.1540  0.3452 -0.0638
 5078WAT     H215637   5.418   2.446   4.113 -0.3238 -0.7721 -0.9773
 5079WAT      O15638   7.658   4.935   2.996 -0.0571  0.2955 -0.4352
 5079WAT     H115639   7.578   4.965   3.040  0.6308  0.9224  0.4329
 5079WAT     H215640   7.638   4.941   2.903 -1.6726 -1.3840 -0.2430
 5080WAT      O15641   0.310   7.205   0.926  0.4005  0.3511  0.1406
 5080WAT     H115642   0.306   7.265   1.001  3.3151 -0.1385  0.8005
 5080WAT     H215643   0.285   7.120   0.962  2.3367  0.0007  0.8026
 5081WAT      O15644   5.671   7.054   2.133 -0.1673 -0.2568  0.1626
 5081WAT     H115645   5.611   7.023   2.201 -0.2963 -1.5909 -0.5313
 5081WAT     H215646   5.733   7.110   2.180 -1.3128  0.3032  1.0606
 5082WAT      O15647   3.252   4.795   1.842 -0.1579  0.4112  0.2080
 5082WAT     H115648   3.189   4.817   1.911 -0.3784 -3.0595  1.3126
 5082WAT     H215649   3.336   4.791   1.886 -0.1897 -1.1136  0.1993
 5083WAT      O15650   6.054   4.216   2.819  0.2262 -0.0832 -0.6681
 5083WAT     H115651   6.104   4.242   2.896  0.0196 -0.5823 -0.3610
 5083WAT     H215652   5.975   4.270   2.823 -0.1410 -0.6511 -0.1027
 5084WAT      O15653   1.807   2.965   6.074  0.3242  0.4995 -0.1056
 5084WAT     H115654   1.847   3.023   6.010 -2.3425  3.3470  0.5747
 5084WAT     H215655   1.740   2.918   6.025  0.9393 -0.3477 -0.1645
 5085WAT      O15656   0.063   1.788   5.795 -0.1468 -0.3365  0.3007
 5085WAT     H115657   0.098   1.845   5.726 -1.0977  0.0414  0.1126
 5085WAT     H215658   0.049   1.704   5.752 -1.4783  0.1186 -0.1911
 5086WAT      O15659   1.909   5.601   1.671 -0.0467  0.0415 -0.1070
 5086WAT     H115660   1.949   5.523   1.633 -0.9255 -0.0547 -0.8698
 5086WAT     H215661   1.884   5.574   1.759 -1.4705 -0.9769 -0.7627
 5087WAT      O15662   6.849   3.938   4.945  0.4216 -0.3907  0.0724
 5087WAT     H115663   6.931   3.980   4.919 -0.0303 -0.2579 -1.1842
 5087WAT     H215664   6.808   4.001   5.005 -0.1250  0.8894 -1.5845
 5088WAT      O15665   5.382   1.411   4.647 -0.2627  0.4671 -0.1053
 5088WAT     H115666   5.354   1.489   4.599 -1.0523 -0.0716 -0.5352
 5088WAT     H215667   5.346   1.424   4.735  1.4560  1.6073  0.4911
 5089WAT      O15668   4.055   2.299   3.244 -0.3568 -0.1865 -0.2771
 5089WAT     H115669   4.071   2.379   3.293 -0.3853  0.6087 -1.5276
 5089WAT     H215670   4.138   2.281   3.199 -0.6147 -0.3704 -0.6867
 5090WAT      O15671   1.215   1.613   5.929 -0.4757  0.1234  0.0506
 5090WAT     H115672   1.306   1.596   5.954 -0.7984 -0.9756  0.5238
 5090WAT     H215673   1.164   1.598   6.009 -1.0291  1.2770 -0.0662
 5091WAT      O15674   2.041   5.108   4.871 -0.0818 -0.0585 -0.2293
 5091WAT     H115675   2.032   5.149   4.957 -1.3583 -0.5301 -0.1130
 5091WAT     H215676   1.960   5.130   4.826 -0.9276 -2.5785 -0.0926
 5092WAT      O15677   7.018   2.224   3.799 -0.1983  0.5487 -0.1003
 5092WAT     H115678   6.961   2.246   3.873  0.3143 -1.2349  0.8937
 5092WAT     H215679   7.107   2.237   3.832  0.0580 -1.0023 -0.1200
 5093WAT      O15680   0.309   2.816   2.330 -0.1758 -0.0296 -0.0536
 5093WAT     H115681   0.269   2.870   2.398 -2.1335  0.2172 -1.3244
 5093WAT     H215682   0.319   2.730   2.371 -2.7223 -0.2985  0.1591
 5094WAT      O15683   3.165   1.692   2.218 -0.2243  0.4603 -0.3225
 5094WAT     H115684   3.147   1.749   2.292  0.2432 -1.5086  1.4182
 5094WAT     H215685   3.079   1.668   2.184 -0.5944 -0.7287  1.3433
 5095WAT      O15686   7.398   2.360   5.170 -0.2505  0.4320  0.1963
 5095WAT     H115687   7.363   2.320   5.251 -1.1886  3.6075  1.4949
 5095WAT     H215688   7.470   2.415   5.200  1.1342 -0.3176 -1.5699
 5096WAT      O15689   6.921   5.707   5.732  0.3165 -0.4218 -0.6629
 5096WAT     H115690   6.862   5.692   5.806 -0.6232 -1.9557 -1.6622
 5096WAT     H215691   6.979   5.631   5.731  0.1419 -0.5604 -1.6464
 5097WAT      O15692   1.982   4.903   5.424 -0.0083 -0.3509  0.3973
 5097WAT     H115693   1.925   4.850   5.367 -0.2034 -0.5058  0.7309
 5097WAT     H215694   2.065   4.855   5.426 -0.7515 -1.7045  2.2028
 5098WAT      O15695   2.899   1.275   2.008  0.3739  0.4032  0.2344
 5098WAT     H115696   2.851   1.354   1.983  0.6053  0.8360  1.1241
 5098WAT     H215697   2.951   1.301   2.083  3.8395  0.6386 -2.0055
 5099WAT      O15698   4.175   0.281   0.153  0.1703 -0.1967 -0.5202
 5099WAT     H115699   4.097   0.244   0.194 -0.4978  2.6949  1.1303
 5099WAT     H215700   4.143   0.355   0.102  1.5244 -1.0230 -2.6904
 5100WAT      O15701   0.728   0.826   2.411  0.1370 -0.2243  0.8665
 5100WAT     H115702   0.756   0.885   2.341  1.4294 -1.5171  0.2258
 5100WAT     H215703   0.713   0.883   2.486  2.0707  0.8942  0.4849
 5101WAT      O15704   4.199   1.873   3.401  0.3836  0.1145 -0.0515
 5101WAT     H115705   4.274   1.842   3.451  0.1680  0.7659  0.7085
 5101WAT     H215706   4.125   1.864   3.462 -0.4133 -1.7073 -1.1868
 5102WAT      O15707   4.509   2.105   5.908  0.4655  0.1162  0.2853
 5102WAT     H115708   4.600   2.101   5.934  0.0968  0.6739  1.7252
 5102WAT     H215709   4.462   2.139   5.985 -0.4591  3.4460 -1.5114
 5103WAT      O15710   5.605   1.037   1.701 -0.3224 -0.0313  0.0591
 5103WAT     H115711   5.613   1.107   1.765  0.7603 -1.0173  1.0665
 5103WAT     H215712   5.587   1.081   1.618 -1.9018  1.2739  1.0450
 5104WAT      O15713   0.992   4.060   0.280 -0.1572 -0.1134  0.2393
 5104WAT     H115714   0.915   4.108   0.310  0.4869 -0.2934  2.3658
 5104WAT     H215715   1.050   4.127   0.244 -0.2601  0.3873  0.9867
 5105WAT      O15716   0.863   5.272   0.819  0.0562  0.3368 -0.0369
 5105WAT     H115717   0.812   5.296   0.742  1.1863  0.5949 -0.7287
 5105WAT     H215718   0.800   5.228   0.877 -0.5619 -0.9270 -1.5982
 5106WAT      O15719   1.278   6.758   3.225  0.5286  0.3371  0.0357
 5106WAT     H115720   1.334   6.692   3.267 -2.1822 -3.1564 -1.3729
 5106WAT     H215721   1.323   6.778   3.143  0.8791 -0.6458 -0.0296
 5107WAT      O15722   2.029   2.403   2.582 -0.1929  0.0434  0.0865
 5107WAT     H115723   2.103   2.369   2.631 -0.8418 -0.5864  0.6401
 5107WAT     H215724   1.965   2.430   2.648 -0.8503 -0.3068 -0.3845
 5108WAT      O15725   6.445   0.675   5.611 -0.3403 -0.3885  0.3936
 5108WAT     H115726   6.444   0.590   5.654 -2.0668 -0.2469  0.7195
 5108WAT     H215727   6.451   0.739   5.682 -1.8324 -0.1952  0.3911
 5109WAT      O15728   6.314   3.987   3.151  0.2914  0.6290  0.0150
 5109WAT     H115729   6.346   3.988   3.241 -1.1604  1.4551  0.5669
 5109WAT     H215730   6.366   4.054   3.106  0.4475  0.8144  0.4635
 5110WAT      O15731   2.107   5.311   5.586  0.2334  0.3946  0.0287
 5110WAT     H115732   2.182   5.282   5.535  0.8076  1.5729  0.1646
 5110WAT     H215733   2.128   5.288   5.676 -0.9561 -2.0456 -0.2575
 5111WAT      O15734   1.056   4.183   2.768  0.3288  0.3593 -0.0372
 5111WAT     H115735   1.137   4.176   2.820  0.8093  0.1885 -0.7940
 5111WAT     H215736   1.012   4.260   2.803  0.8966  0.5458  0.2834
 5112WAT      O15737   6.849   2.245   5.959 -0.3877  0.4488  0.0696
 5112WAT     H115738   6.826   2.280   6.045  0.9771 -0.3363  0.7992
 5112WAT     H215739   6.897   2.315   5.916  0.2690  0.3273  0.5805
 5113WAT      O15740   6.105   1.525   2.505  0.5332  0.1660  0.0737
 5113WAT     H115741   6.134   1.599   2.452  1.7933 -0.2445  0.1645
 5113WAT     H215742   6.178   1.463   2.502 -1.4960 -2.3759 -2.3450
 5114WAT      O15743   6.847   0.020   4.013 -0.2705  0.3263 -0.0484
 5114WAT     H115744   6.887  -0.050   4.064  0.1616  1.7153  1.6072
 5114WAT     H215745   6.764   0.039   4.058  0.9065  2.7449  1.3485
 5115WAT      O15746   6.223   1.175   3.818 -0.2291 -0.4943 -0.1496
 5115WAT     H115747   6.162   1.248   3.826  1.9738  1.3190  1.0090
 5115WAT     H215748   6.220   1.131   3.903  0.9285  0.3376  0.3370
 5116WAT      O15749   1.581   3.830   3.940 -0.0825 -0.3024 -0.0363
 5116WAT     H115750   1.624   3.912   3.965  0.9942 -0.8986  0.1100
 5116WAT     H215751   1.568   3.838   3.846 -1.3901  0.6745  0.2017
 5117WAT      O15752   5.722   7.174   3.628  0.1725  0.2786 -0.2263
 5117WAT     H115753   5.799   7.135   3.670 -0.1862 -0.6539 -0.4132
 5117WAT     H215754   5.754   7.203   3.542  0.6013  1.0261  0.1775
 5118WAT      O15755   3.631   5.825   3.058  0.0069  0.2640 -0.2372
 5118WAT     H115756   3.653   5.753   3.118 -0.5649 -0.5393 -0.9729
 5118WAT     H215757   3.549   5.861   3.093  1.1810  1.7700  1.1712
 5119WAT      O15758   3.220   5.907   5.523  0.0876  0.1271 -0.1293
 5119WAT     H115759   3.254   5.978   5.578  2.2888 -1.4611  0.6868
 5119WAT     H215760   3.259   5.923   5.437  1.5909 -0.7186  0.3652
 5120WAT      O15761   4.708   5.526   1.452  0.0626  0.0320 -0.7318
 5120WAT     H115762   4.689   5.437   1.483  0.3560  0.4027  0.5952
 5120WAT     H215763   4.632   5.577   1.480  0.4359  0.4239 -0.4300
 5121WAT      O15764   5.489   3.975   1.072  0.4147 -0.3046  0.2975
 5121WAT     H115765   5.518   3.951   1.160 -1.1441  1.1924  1.2857
 5121WAT     H215766   5.399   4.006   1.084 -0.0710 -0.6798 -1.9468
 5122WAT      O15767   1.884   5.032   4.336  0.0281  0.4347 -0.1849
 5122WAT     H115768   1.902   5.126   4.338 -0.7219  0.5753  0.4595
 5122WAT     H215769   1.861   5.014   4.245 -0.3204  0.9760 -0.2082
 5123WAT      O15770   3.014   7.136   4.245  0.3591 -0.2046  0.1800
 5123WAT     H115771   3.094   7.084   4.252  0.9778  0.2508 -2.6579
 5123WAT     H215772   2.949   7.075   4.210 -0.3816 -0.3642  1.7431
 5124WAT      O15773   1.728   6.233   5.934 -0.4141 -0.3612  0.0594
 5124WAT     H115774   1.705   6.302   5.995  0.3686  0.1916 -0.2688
 5124WAT     H215775   1.712   6.271   5.848  3.9221  0.9962 -0.3770
 5125WAT      O15776   3.296   0.767   1.037  0.8958 -0.0072  0.1609
 5125WAT     H115777   3.297   0.852   0.994 -0.0227 -0.7380 -1.3964
 5125WAT     H215778   3.389   0.742   1.041  1.0153 -0.9489 -3.7582
 5126WAT      O15779   4.673   0.969   3.647 -0.0325  0.6800  0.1124
 5126WAT     H115780   4.603   0.980   3.583  1.0616  2.2478 -0.9122
 5126WAT     H215781   4.646   1.021   3.722 -1.0643 -0.7113  0.7359
 5127WAT      O15782   6.701   0.296   4.163 -0.4061 -0.0807 -0.0407
 5127WAT     H115783   6.678   0.320   4.253  0.1303  0.9092 -0.1562
 5127WAT     H215784   6.619   0.307   4.114 -0.5424  0.0063  0.2056
 5128WAT      O15785   5.784   2.551   4.929 -0.3187 -1.0565 -0.4161
 5128WAT     H115786   5.758   2.622   4.988 -0.8193 -1.5360 -0.0451
 5128WAT     H215787   5.784   2.590   4.842  0.7745 -0.2395 -0.0805
 5129WAT      O15788   4.648   0.415   4.163 -0.0558 -0.2134 -0.1306
 5129WAT     H115789   4.576   0.372   4.209 -1.5112 -1.5974 -3.3934
 5129WAT     H215790   4.607   0.489   4.119  1.5933  2.0160  1.8338
 5130WAT      O15791   0.644   1.005   2.598 -0.0347 -0.2401 -0.0263
 5130WAT     H115792   0.573   1.052   2.642  0.3679  0.7587 -0.4270
 5130WAT     H215793   0.676   0.944   2.664 -0.6732 -0.0691  0.4525
 5131WAT      O15794   2.107   2.089   2.705 -0.4623  0.5347 -0.6084
 5131WAT     H115795   2.128   2.024   2.772 -0.2244  0.3704 -0.8408
 5131WAT     H215796   2.171   2.159   2.719 -1.4246  1.2480  0.3651
 5132WAT      O15797   0.318   1.185   2.471  0.9628  0.3335 -0.1716
 5132WAT     H115798   0.305   1.276   2.445  0.5965  0.4448  0.3931
 5132WAT     H215799   0.314   1.186   2.567 -1.7599 -0.6569 -0.1994
 5133WAT      O15800   4.372   5.699   2.831  0.4388 -0.0297 -0.4569
 5133WAT     H115801   4.291   5.680   2.879  1.3776 -0.6482  0.9433
 5133WAT     H215802   4.383   5.624   2.773 -0.6836  0.7066 -1.7137
 5134WAT      O15803   7.128   3.614   4.865  0.5710  0.3476 -0.2774
 5134WAT     H115804   7.051   3.620   4.809 -1.7953 -0.3471  2.6584
 5134WAT     H215805   7.154   3.705   4.880 -0.7243  0.6759  0.0214
 5135WAT      O15806   2.618   5.070   5.176  0.1609  0.1627  0.1286
 5135WAT     H115807   2.680   5.123   5.227 -1.3522  1.1061  1.0719
 5135WAT     H215808   2.604   5.120   5.095  0.4815  0.0366 -0.0067
 5136WAT      O15809   0.465   4.411   1.938 -0.5586  0.3414  0.3184
 5136WAT     H115810   0.500   4.498   1.958  0.8573  0.4167 -2.0950
 5136WAT     H215811   0.524   4.350   1.982  1.3449  0.5475 -1.7568
 5137WAT      O15812   6.378   6.781   3.185 -0.2366  0.8006  0.4263
 5137WAT     H115813   6.468   6.756   3.169 -0.9383 -0.2922 -2.3287
 5137WAT     H215814   6.360   6.751   3.274  0.2602 -5.1153 -1.0372
 5138WAT      O15815   0.112   4.885   1.624 -0.0585 -0.2856 -0.2538
 5138WAT     H115816   0.143   4.814   1.680  0.2566 -0.5339 -0.7341
 5138WAT     H215817   0.045   4.929   1.676 -0.6405 -1.2605 -0.1404
 5139WAT      O15818   0.163   0.360   1.786 -0.3103  0.0356  0.1210
 5139WAT     H115819   0.178   0.267   1.802  1.6423  0.4136  0.8203
 5139WAT     H215820   0.248   0.393   1.754 -0.7322  1.7067  0.6178
 5140WAT      O15821   6.540   1.917   4.243 -0.1755 -0.7276 -0.3580
 5140WAT     H115822   6.619   1.885   4.287 -0.1779  0.4369  0.5530
 5140WAT     H215823   6.489   1.957   4.314  0.3731  2.3283 -1.5113
 5141WAT      O15824   4.196   4.294   0.877 -0.1222 -0.0367  0.3496
 5141WAT     H115825   4.120   4.256   0.833 -0.4659  0.7354  0.2601
 5141WAT     H215826   4.265   4.229   0.866 -0.0427  0.3203 -1.7909
 5142WAT      O15827   7.446   1.350   2.684  0.2769  0.2778  0.1512
 5142WAT     H115828   7.439   1.416   2.615  0.1467  1.5016  1.3007
 5142WAT     H215829   7.410   1.392   2.761 -0.5905 -1.4449  0.7461
 5143WAT      O15830   6.222   4.796   0.263 -0.1243  0.3021 -0.1019
 5143WAT     H115831   6.144   4.851   0.255 -0.2365  0.1258 -0.2221
 5143WAT     H215832   6.222   4.769   0.355 -1.3144 -1.3161 -0.5253
 5144WAT      O15833   2.966   5.772   5.525  0.5851  0.1760  0.2823
 5144WAT     H115834   3.021   5.849   5.512 -2.4457  2.1445 -2.3126
 5144WAT     H215835   2.898   5.802   5.585  0.0394 -0.8910  0.2156
 5145WAT      O15836   5.937   4.777   4.159 -0.6646  0.2003 -0.0211
 5145WAT     H115837   6.021   4.781   4.112 -0.6343  1.2271  0.0893
 5145WAT     H215838   5.882   4.720   4.105  0.0715 -0.4190 -0.1360
 5146WAT      O15839   6.572   3.121   1.209 -0.1663  0.1462  0.6477
 5146WAT     H115840   6.602   3.044   1.161 -1.1821 -0.4468  0.9341
 5146WAT     H215841   6.550   3.184   1.141 -0.9486 -0.4449  0.3357
 5147WAT      O15842   2.094   2.032   2.391  0.2525 -0.0765 -0.6458
 5147WAT     H115843   2.130   2.111   2.352  2.4928 -0.7055  0.0083
 5147WAT     H215844   2.032   2.063   2.456 -0.1579  1.0760 -1.5638
 5148WAT      O15845   0.784   2.572   0.569  0.8693  0.0827 -0.3658
 5148WAT     H115846   0.713   2.526   0.612  1.2582  1.0259  1.3585
 5148WAT     H215847   0.861   2.553   0.621  1.5038  0.6960 -1.0498
 5149WAT      O15848   4.261   6.077   2.403 -0.1595 -0.1546  0.8120
 5149WAT     H115849   4.218   6.010   2.456 -2.0152  1.4648  1.4561
 5149WAT     H215850   4.340   6.098   2.452 -0.2101 -0.9372  1.2566
 5150WAT      O15851   3.590   2.716   1.947 -0.1055 -0.4304 -0.2825
 5150WAT     H115852   3.576   2.802   1.986 -0.9164 -0.4015 -0.6229
 5150WAT     H215853   3.506   2.671   1.959  0.7490 -1.7316  1.2363
 5151WAT      O15854   6.890   5.166   5.057  0.5830 -0.0362  0.1800
 5151WAT     H115855   6.839   5.130   4.984 -0.9647 -0.3943  1.3845
 5151WAT     H215856   6.859   5.118   5.134 -0.3756  2.7180  1.6232
 5152WAT      O15857   4.738   2.227   3.680 -0.1244  0.1087 -0.0895
 5152WAT     H115858   4.685   2.192   3.609 -1.0080  0.0531  0.5699
 5152WAT     H215859   4.696   2.194   3.760  1.8143 -1.2324  0.4510
 5153WAT      O15860   4.551   6.073   5.919 -0.2750  0.0093 -0.5408
 5153WAT     H115861   4.497   6.135   5.968  0.7740  0.7974 -0.3355
 5153WAT     H215862   4.523   5.987   5.951  0.1666  0.4805  1.2582
 5154WAT      O15863   7.318   6.221   2.395  0.1452  0.4437  0.5861
 5154WAT     H115864   7.343   6.180   2.312  0.5055  0.5261  0.6538
 5154WAT     H215865   7.310   6.149   2.457  0.5701  0.4493  0.6527
 5155WAT      O15866   0.120   2.919   5.250 -0.5198  0.5020  0.1181
 5155WAT     H115867   0.035   2.922   5.205 -0.8626 -1.7567  0.4682
 5155WAT     H215868   0.105   2.965   5.333 -0.7649  1.9704 -0.7143
 5156WAT      O15869   5.309   3.700   5.402  0.1817  0.1717 -0.2827
 5156WAT     H115870   5.382   3.640   5.417 -1.4627 -1.8605  0.0974
 5156WAT     H215871   5.311   3.760   5.478  0.3590 -1.0603  0.7129
 5157WAT      O15872   5.176   0.644   0.488 -0.1158  0.4059  0.0709
 5157WAT     H115873   5.179   0.569   0.428  1.1071  1.5518 -1.3964
 5157WAT     H215874   5.119   0.707   0.444  0.0084  0.8853  0.5844
 5158WAT      O15875   5.632   2.686   1.995 -0.4383  0.0483  0.1179
 5158WAT     H115876   5.640   2.653   2.085 -0.3249  0.5152  0.2795
 5158WAT     H215877   5.604   2.776   2.005  2.0072  0.9282 -0.2232
 5159WAT      O15878   4.002   0.031   2.301 -0.3543  0.2360 -0.5962
 5159WAT     H115879   4.013  -0.060   2.274 -0.1512 -0.5574  1.8982
 5159WAT     H215880   3.909   0.049   2.291 -0.1622  0.3855 -2.7093
 5160WAT      O15881   2.401   1.261   2.873 -0.1483  0.1285  0.5359
 5160WAT     H115882   2.495   1.253   2.885 -0.0802 -0.0834 -0.1317
 5160WAT     H215883   2.365   1.243   2.960  0.3529 -1.2874  0.4842
 5161WAT      O15884   2.277   4.956   4.783 -0.1712  0.2452 -0.1376
 5161WAT     H115885   2.282   4.890   4.851 -0.9860 -0.0930 -0.3883
 5161WAT     H215886   2.207   5.015   4.811 -0.8421 -0.1633 -0.8818
 5162WAT      O15887   0.096   2.176   4.939 -0.2347 -0.3651  0.3752
 5162WAT     H115888   0.122   2.085   4.923  0.6583 -0.2408  1.0763
 5162WAT     H215889   0.026   2.170   5.003 -3.0809 -0.7936 -2.4878
 5163WAT      O15890   6.448   1.764   3.990 -0.1063  0.1650 -0.2466
 5163WAT     H115891   6.450   1.682   4.040  0.8747 -0.2097 -0.8838
 5163WAT     H215892   6.489   1.828   4.048 -0.5909  0.1484  0.1277
 5164WAT      O15893   2.419   2.150   5.891  0.5269 -0.1844  0.8631
 5164WAT     H115894   2.350   2.200   5.934 -0.5728 -1.0663  0.1841
 5164WAT     H215895   2.374   2.076   5.850  1.9417 -1.0933  0.8475
 5165WAT      O15896   3.202   0.054   4.294  0.1614  0.1489 -0.8996
 5165WAT     H115897   3.236   0.133   4.337 -1.1667  0.9594 -1.2914
 5165WAT     H215898   3.107   0.065   4.294 -0.3316 -2.8934  1.7624
 5166WAT      O15899   7.239   4.587   3.224  0.0280  0.4486 -0.1131
 5166WAT     H115900   7.157   4.605   3.270 -0.3538 -0.1680 -0.5257
 5166WAT     H215901   7.221   4.506   3.176  1.3602 -0.5044  0.9540
 5167WAT      O15902   5.462   4.205   3.971  0.4106 -0.3175 -0.5632
 5167WAT     H115903   5.542   4.245   3.938  1.1107 -1.3708 -0.2041
 5167WAT     H215904   5.392   4.254   3.928  1.2249  0.8749 -0.5920
 5168WAT      O15905   5.144   2.736   4.713  0.2160 -0.3688  0.1519
 5168WAT     H115906   5.175   2.757   4.801  1.8228 -0.3168 -0.3843
 5168WAT     H215907   5.065   2.684   4.727  1.3960 -1.8739  1.6601
 5169WAT      O15908   6.460   4.903   0.772  0.1907  0.2299 -0.0323
 5169WAT     H115909   6.505   4.978   0.812 -0.3413  0.0345  0.9646
 5169WAT     H215910   6.529   4.839   0.756  0.4859  0.4999  0.1433
 5170WAT      O15911   1.539   2.708   2.204 -0.0884  0.6067 -0.5933
 5170WAT     H115912   1.471   2.652   2.243  0.5818  0.5944  0.5947
 5170WAT     H215913   1.525   2.794   2.244  1.4219  0.2805  0.7516
 5171WAT      O15914   1.116   1.410   5.638 -0.2118 -0.2983 -0.0408
 5171WAT     H115915   1.056   1.461   5.585  0.6366 -0.3541 -1.0801
 5171WAT     H215916   1.114   1.452   5.724 -0.7579  0.4715 -0.4200
 5172WAT      O15917   5.419   3.295   0.517  0.2168  0.3858 -0.3186
 5172WAT     H115918   5.429   3.201   0.503 -0.4829  0.1129  0.8752
 5172WAT     H215919   5.326   3.312   0.505  0.5572  1.2352 -2.0820
 5173WAT      O15920   4.181   4.545   4.886  0.4158  0.3741  0.1734
 5173WAT     H115921   4.093   4.543   4.923  0.2936 -2.9056  0.0289
 5173WAT     H215922   4.237   4.577   4.957 -0.5839 -0.1103  1.2052
 5174WAT      O15923   1.377   4.324   4.655  0.6310  0.4821 -0.7157
 5174WAT     H115924   1.372   4.281   4.740  3.0139  1.5749  0.0630
 5174WAT     H215925   1.352   4.255   4.592  4.1946 -2.1948  0.4552
 5175WAT      O15926   0.301   5.557   2.742  0.2360 -0.9568  0.3116
 5175WAT     H115927   0.390   5.529   2.723 -0.4698 -2.4384 -1.0388
 5175WAT     H215928   0.285   5.529   2.832  1.2319 -0.3349  0.6936
 5176WAT      O15929   0.614   5.744   4.230  0.1543  0.4914  0.2861
 5176WAT     H115930   0.548   5.727   4.163  0.8955 -0.2953 -0.2689
 5176WAT     H215931   0.605   5.671   4.291  0.2025  0.6287  0.4571
 5177WAT      O15932   3.694   3.506   4.005 -0.1290  0.5080  0.1477
 5177WAT     H115933   3.781   3.514   4.043 -0.7327 -1.2133  2.0496
 5177WAT     H215934   3.639   3.563   4.059 -0.3133  1.1166 -0.6645
 5178WAT      O15935   0.073   2.444   4.298  0.0849  0.0196 -0.0374
 5178WAT     H115936   0.152   2.492   4.321 -0.2796  0.4613  0.3261
 5178WAT     H215937   0.065   2.377   4.365  0.0186  0.1397  0.0772
 5179WAT      O15938   7.612   0.392   2.226  0.7843 -0.0702  0.2904
 5179WAT     H115939   7.636   0.457   2.160  1.5004  2.3315  2.7416
 5179WAT     H215940   7.536   0.429   2.271  0.8022 -1.2440  1.3610
 5180WAT      O15941   7.590   3.301   4.418 -0.4169  0.5696  0.0624
 5180WAT     H115942   7.619   3.392   4.418  1.7986 -0.0578 -0.6649
 5180WAT     H215943   7.616   3.268   4.504  0.6199  0.1329 -0.4043
 5181WAT      O15944   1.197   6.999   5.597 -0.0522  0.2701 -0.0060
 5181WAT     H115945   1.183   6.961   5.684 -0.7928  0.5764  0.0133
 5181WAT     H215946   1.250   6.934   5.550  1.9017  0.8672  1.2368
 5182WAT      O15947   7.333   3.393   1.102  0.7649 -0.6369 -0.3714
 5182WAT     H115948   7.341   3.435   1.187  3.3259 -0.0773 -0.7855
 5182WAT     H215949   7.313   3.301   1.122 -3.5331  0.2951  0.5734
 5183WAT      O15950   3.541   0.829   3.150  0.7020 -0.3417 -0.5040
 5183WAT     H115951   3.532   0.784   3.234 -0.4684 -0.2350 -0.5626
 5183WAT     H215952   3.621   0.792   3.112  2.4343  1.0977  1.5359
 5184WAT      O15953   3.904   1.401   1.107 -0.4849  0.0416 -0.0932
 5184WAT     H115954   3.893   1.312   1.139  0.2132  0.0764  0.2740
 5184WAT     H215955   3.900   1.456   1.185 -1.0338  0.3438 -0.3313
 5185WAT      O15956   6.972   3.626   2.672 -0.2462 -0.0958  0.1181
 5185WAT     H115957   7.009   3.543   2.703  0.6252  0.2790  0.1095
 5185WAT     H215958   7.036   3.659   2.609 -0.8974  0.2722 -0.3609
 5186WAT      O15959   1.251   0.598   5.277 -0.0421 -0.0241  0.3390
 5186WAT     H115960   1.202   0.677   5.251 -1.7268 -1.4001 -0.9070
 5186WAT     H215961   1.275   0.557   5.194 -0.0524 -1.3323  0.9594
 5187WAT      O15962   2.936   4.970   1.163 -0.2994 -0.0826  0.0894
 5187WAT     H115963   2.921   4.934   1.250  0.6442 -0.6726  0.0202
 5187WAT     H215964   2.864   5.033   1.150 -2.4824 -2.4645 -0.1019
 5188WAT      O15965   3.286   6.786   0.005  0.3588 -0.2511 -0.5699
 5188WAT     H115966   3.238   6.812  -0.074  0.9143 -1.4022 -1.3075
 5188WAT     H215967   3.374   6.819  -0.009  0.6443 -1.0799 -0.7709
 5189WAT      O15968   6.466   0.658   2.731 -0.4795 -0.4807 -0.1565
 5189WAT     H115969   6.501   0.578   2.772 -1.7578 -1.2770 -0.5796
 5189WAT     H215970   6.489   0.728   2.792  3.3980 -0.6244 -1.1870
 5190WAT      O15971   7.013   4.386   3.206 -0.0616 -0.9071  0.0022
 5190WAT     H115972   6.940   4.324   3.192  0.6971 -1.5839 -1.1216
 5190WAT     H215973   7.042   4.408   3.117 -1.5436  2.6360  0.2467
 5191WAT      O15974   7.566   7.132   1.744 -0.1203  0.5237 -0.0204
 5191WAT     H115975   7.534   7.138   1.834 -0.2273 -0.8025  0.0518
 5191WAT     H215976   7.661   7.124   1.753 -0.2460 -1.0595  0.0682
 5192WAT      O15977   2.260   5.877   4.279  0.1417  0.2415  0.4463
 5192WAT     H115978   2.336   5.927   4.248 -0.0630 -0.4776 -1.3867
 5192WAT     H215979   2.296   5.790   4.299  0.2287  0.6385  2.1154
 5193WAT      O15980   0.490   0.698   3.144 -0.1191  0.0530  0.1640
 5193WAT     H115981   0.460   0.627   3.087  1.0546 -0.6478  0.4039
 5193WAT     H215982   0.433   0.693   3.221 -1.3605  0.6642 -0.6651
 5194WAT      O15983   7.217   5.025   3.777  0.1263 -0.6334 -0.0499
 5194WAT     H115984   7.206   4.946   3.724 -1.5126  0.0657 -0.8233
 5194WAT     H215985   7.300   5.012   3.823  0.4582 -2.2810 -1.0423
 5195WAT      O15986   6.643   1.163   0.373 -0.0469  0.2535  0.0089
 5195WAT     H115987   6.712   1.098   0.358  0.0514  0.1929  0.6805
 5195WAT     H215988   6.690   1.239   0.406 -0.4139 -0.2272  1.7399
 5196WAT      O15989   0.681   1.976   0.434  0.2964  0.8176  0.2505
 5196WAT     H115990   0.731   1.912   0.485 -0.3591  0.2861  0.2342
 5196WAT     H215991   0.696   2.059   0.479  2.2757  0.9288 -0.5199
 5197WAT      O15992   1.593   0.061   3.080 -0.0781  0.0788 -0.4366
 5197WAT     H115993   1.663   0.026   3.026 -0.0773 -2.2948  0.9522
 5197WAT     H215994   1.594   0.006   3.159 -1.8301  1.6327  0.7617
 5198WAT      O15995   0.262   1.525   4.655  0.0501  0.2401  0.3142
 5198WAT     H115996   0.199   1.597   4.650 -0.5698 -0.0881  2.3373
 5198WAT     H215997   0.217   1.451   4.614 -0.6285  0.1935  1.1115
 5199WAT      O15998   3.682   2.955   0.570 -0.0141  1.1725 -0.1176
 5199WAT     H115999   3.689   3.039   0.615 -1.5393  1.2506  0.0515
 5199WAT     H216000   3.588   2.935   0.573  0.4497 -1.1774  1.0177
 5200WAT      O16001   2.192   6.265   2.359 -0.2346  0.0862  0.1021
 5200WAT     H116002   2.121   6.208   2.328  0.2576 -0.8076  0.5763
 5200WAT     H216003   2.201   6.243   2.452 -0.8205  1.7964  0.6063
 5201WAT      O16004   0.516   3.796   5.253 -0.0318  0.4571  0.4012
 5201WAT     H116005   0.530   3.866   5.316 -1.3837 -0.3516  1.6777
 5201WAT     H216006   0.581   3.730   5.277  0.1445  0.5884  0.2814
 5202WAT      O16007   1.793   4.940   4.570  0.2621 -0.3969  0.3902
 5202WAT     H116008   1.823   5.013   4.623  0.9639 -0.6995  0.4283
 5202WAT     H216009   1.818   4.963   4.481 -1.2889  0.3027  0.1091
 5203WAT      O16010   2.791   0.944   2.930  0.3963  0.0586 -0.4159
 5203WAT     H116011   2.827   0.885   2.996  0.2923 -0.1832 -0.5766
 5203WAT     H216012   2.864   1.002   2.908  1.0667 -1.2057 -1.6393
 5204WAT      O16013   1.112   1.686   6.177  0.4887  0.5230  0.5530
 5204WAT     H116014   1.087   1.626   6.247  2.4677  1.1376  1.8893
 5204WAT     H216015   1.103   1.773   6.216 -0.9280  1.0747 -0.8792
 5205WAT      O16016   6.833   6.162   2.230  0.5322  0.0541  0.2145
 5205WAT     H116017   6.921   6.190   2.252 -0.1813  1.8635  0.9205
 5205WAT     H216018   6.797   6.234   2.178 -1.7698  1.1624  3.0720
 5206WAT      O16019   6.770   2.286   4.489 -0.6434 -0.3472  0.2482
 5206WAT     H116020   6.820   2.209   4.517  0.2302 -0.4664 -1.4839
 5206WAT     H216021   6.781   2.349   4.561  0.9005 -0.8649  0.5130
 5207WAT      O16022   2.775   3.863   1.926 -0.0934 -0.3688  0.0930
 5207WAT     H116023   2.803   3.878   2.016  0.0948 -1.5986  0.2558
 5207WAT     H216024   2.750   3.770   1.924 -0.5628 -0.2317 -0.9973
 5208WAT      O16025   0.091   1.405   0.457 -0.5046  0.9464  0.1606
 5208WAT     H116026   0.021   1.433   0.516 -1.1476  0.6910 -0.4705
 5208WAT     H216027   0.055   1.330   0.410 -0.7834  2.3553 -2.0064
 5209WAT      O16028   0.259   2.762   1.148  0.1914 -0.3156  0.1196
 5209WAT     H116029   0.323   2.829   1.125 -0.7075  0.2520 -0.8138
 5209WAT     H216030   0.248   2.771   1.243 -1.1446  2.0435 -0.1785
 5210WAT      O16031   6.564   3.583   0.152  0.6682 -0.1358  0.1041
 5210WAT     H116032   6.537   3.626   0.233 -0.8569 -1.8691  0.5837
 5210WAT     H216033   6.638   3.528   0.177  0.2867 -0.5648  0.2857
 5211WAT      O16034   6.970   6.304   0.588 -0.1489 -0.1037  0.6190
 5211WAT     H116035   7.033   6.368   0.621 -0.5506  0.4123  0.4096
 5211WAT     H216036   6.913   6.355   0.530 -0.1807 -0.7526  0.0670
 5212WAT      O16037   5.726   5.101   0.295 -0.3863  0.0220 -0.8230
 5212WAT     H116038   5.746   5.183   0.341  1.1666 -0.8515  0.1417
 5212WAT     H216039   5.760   5.115   0.206 -0.9709  0.7390 -0.9442
 5213WAT      O16040   4.520   3.869   6.036  0.0508  0.3359 -0.0588
 5213WAT     H116041   4.447   3.834   5.984 -2.5234  3.3717  1.2104
 5213WAT     H216042   4.514   3.822   6.119 -1.0845  1.1676  0.3532
 5214WAT      O16043   4.300   3.806   1.133 -0.6721  0.0585 -0.5697
 5214WAT     H116044   4.237   3.879   1.132  0.1189  0.7656 -1.5774
 5214WAT     H216045   4.358   3.824   1.059  0.8948 -0.4216  0.4971
 5215WAT      O16046   4.154   2.201   1.134 -0.2511 -0.3633 -0.1251
 5215WAT     H116047   4.198   2.241   1.059  1.0912  0.9976  1.2981
 5215WAT     H216048   4.129   2.114   1.103 -1.2424  0.7165 -2.6497
 5216WAT      O16049   2.384   0.590   2.824  0.0473  0.3989 -0.2085
 5216WAT     H116050   2.352   0.518   2.878 -0.9410  1.1489  0.2480
 5216WAT     H216051   2.305   0.626   2.783  0.1603  2.6257  1.3385
 5217WAT      O16052   7.102   1.123   3.780 -0.3950  0.0412 -0.0057
 5217WAT     H116053   7.186   1.098   3.819  0.5514 -0.1638 -2.0362
 5217WAT     H216054   7.066   1.188   3.841  1.8403  1.0915  0.2951
 5218WAT      O16055   4.759   3.957   5.941 -0.1631 -0.1984  0.0604
 5218WAT     H116056   4.801   3.997   6.017  0.1705 -0.9834  0.2995
 5218WAT     H216057   4.675   3.925   5.975 -0.3850  0.1989 -0.1061
 5219WAT      O16058   7.614   0.469   0.812  0.0481 -0.9594  0.7659
 5219WAT     H116059   7.587   0.460   0.721 -0.7921  0.3681  0.8552
 5219WAT     H216060   7.696   0.519   0.807 -1.8520  2.5157  0.8022
 5220WAT      O16061   5.765   0.064   1.847  0.1925  0.6087 -0.1782
 5220WAT     H116062   5.826   0.040   1.777 -0.2332 -1.5528  0.1041
 5220WAT     H216063   5.782  -0.001   1.916  0.1881  2.3156  1.5058
 5221WAT      O16064   1.466   0.796   4.008  0.2852  0.5247  0.4113
 5221WAT     H116065   1.544   0.753   3.973  0.6705 -0.6326  2.5636
 5221WAT     H216066   1.499   0.874   4.052  0.1741  0.3030  0.8913
 5222WAT      O16067   5.365   7.132   2.774 -0.1007  0.2124 -0.8700
 5222WAT     H116068   5.409   7.099   2.853 -0.6514  0.1715 -0.5788
 5222WAT     H216069   5.272   7.114   2.789 -0.8030  3.9462  0.4206
 5223WAT      O16070   7.269   4.907   2.723  0.3777 -0.3705  0.0703
 5223WAT     H116071   7.258   4.961   2.801  2.1473  0.6662 -0.3349
 5223WAT     H216072   7.297   4.822   2.757  0.2974 -0.1881  0.6119
 5224WAT      O16073   5.399   1.203   2.462 -0.5367  0.1618  0.4444
 5224WAT     H116074   5.392   1.295   2.488  1.4205 -0.0063  1.7944
 5224WAT     H216075   5.418   1.157   2.543  0.0671 -1.2162 -0.4505
 5225WAT      O16076   1.073   4.315   4.048  0.0092 -0.2854 -0.1093
 5225WAT     H116077   0.998   4.355   4.092  0.1559  0.3657 -0.4418
 5225WAT     H216078   1.101   4.245   4.108 -0.3645 -0.0113  0.3950
 5226WAT      O16079   0.227   3.829   5.481 -0.6278 -0.2212  0.1090
 5226WAT     H116080   0.218   3.835   5.386 -1.3686 -1.4419  0.0910
 5226WAT     H216081   0.311   3.785   5.494 -0.2713  0.4233  0.0443
 5227WAT      O16082   0.347   0.878   5.466  0.1145  0.2592 -0.2634
 5227WAT     H116083   0.263   0.911   5.435  0.5938  0.2693 -1.5936
 5227WAT     H216084   0.329   0.786   5.489 -0.1879  0.1691 -0.8429
 5228WAT      O16085   3.036   2.504   0.892  0.1693 -0.2344  0.2980
 5228WAT     H116086   2.944   2.525   0.910  0.2787  0.0691  0.5060
 5228WAT     H216087   3.050   2.420   0.936 -0.5818 -1.3737 -1.4664
 5229WAT      O16088   1.086   2.746   2.303 -0.0019  0.2012  0.4099
 5229WAT     H116089   1.052   2.834   2.284  1.5549  0.8519  0.4953
 5229WAT     H216090   1.010   2.698   2.336 -0.9672  1.4049  0.0386
 5230WAT      O16091   2.255   4.564   2.470  0.3457  0.0658 -0.0998
 5230WAT     H116092   2.213   4.583   2.554  0.8240 -1.3200  0.4947
 5230WAT     H216093   2.239   4.471   2.456  0.0427  0.3431 -1.6988
 5231WAT      O16094   0.499   3.639   3.899 -0.1923 -0.6150  0.2330
 5231WAT     H116095   0.560   3.614   3.967  0.5213  0.3093 -0.0495
 5231WAT     H216096   0.541   3.612   3.817  1.2947  2.6363 -0.2136
 5232WAT      O16097   6.036   0.713   0.877  0.4524  0.2479 -0.7949
 5232WAT     H116098   6.058   0.658   0.803  1.5018  0.2559 -0.5097
 5232WAT     H216099   5.995   0.654   0.940 -0.0435  0.1577 -1.1949
 5233WAT      O16100   1.100   1.673   0.306 -0.0805 -0.4691  0.2622
 5233WAT     H116101   1.097   1.760   0.345 -1.0322 -0.1016 -0.6031
 5233WAT     H216102   1.098   1.613   0.382  2.6047  0.2153  0.9697
 5234WAT      O16103   2.414   5.392   3.223  0.1445  0.3076 -0.2057
 5234WAT     H116104   2.474   5.371   3.295  0.7479  1.7205 -0.2796
 5234WAT     H216105   2.327   5.384   3.262  0.3598 -1.1636  0.0624
 5235WAT      O16106   5.795   1.306   3.578  0.2401  0.2696 -0.0889
 5235WAT     H116107   5.734   1.247   3.534  0.6893 -0.8756  0.7767
 5235WAT     H216108   5.739   1.366   3.627 -0.2565 -1.4133  1.5403
 5236WAT      O16109   5.465   6.088   0.636 -0.0791  0.4984  0.4830
 5236WAT     H116110   5.404   6.017   0.654  0.6750 -0.8387 -1.7624
 5236WAT     H216111   5.527   6.086   0.710 -0.4359 -0.7743  0.7666
 5237WAT      O16112   0.633   4.759   3.515 -0.4755 -0.8337 -0.4005
 5237WAT     H116113   0.630   4.733   3.423  0.1277 -0.8971 -0.4023
 5237WAT     H216114   0.724   4.782   3.531 -1.1172  2.4055 -0.6985
 5238WAT      O16115   4.282   6.544   0.975  0.2017 -0.5805  0.0748
 5238WAT     H116116   4.276   6.543   0.880 -1.1008 -0.1253  0.1313
 5238WAT     H216117   4.204   6.497   1.004  0.6084 -0.7483  0.9199
 5239WAT      O16118   4.272   5.353   0.275 -0.3465 -0.5600  0.1849
 5239WAT     H116119   4.356   5.348   0.320 -0.0416 -2.2785 -0.4983
 5239WAT     H216120   4.219   5.284   0.314 -0.2222 -1.8131 -1.7086
 5240WAT      O16121   7.439   2.372   4.885 -0.3825 -0.2908  0.2151
 5240WAT     H116122   7.408   2.362   4.975  0.5010 -0.2843  0.5272
 5240WAT     H216123   7.501   2.444   4.888 -0.2118 -0.4054 -0.3634
 5241WAT      O16124   4.170   1.226   0.540  0.3106  0.1068  0.1118
 5241WAT     H116125   4.115   1.150   0.519 -0.3942  0.9958 -1.4555
 5241WAT     H216126   4.185   1.220   0.634 -1.1186 -1.0591  0.3007
 5242WAT      O16127   5.638   0.209   1.475  0.2702 -0.3828 -0.5313
 5242WAT     H116128   5.678   0.287   1.514 -2.1692  1.1936 -0.9481
 5242WAT     H216129   5.574   0.244   1.413  0.5363 -2.7802 -2.3032
 5243WAT      O16130   3.287   0.323   5.496 -0.0183  0.1681  0.3625
 5243WAT     H116131   3.354   0.363   5.552  0.1915 -0.0001  0.2355
 5243WAT     H216132   3.269   0.390   5.430 -0.3646  0.4171  0.7078
 5244WAT      O16133   1.890   3.200   4.130 -0.0411 -1.0553 -0.1226
 5244WAT     H116134   1.938   3.176   4.051  0.7266  0.4231 -0.1460
 5244WAT     H216135   1.894   3.122   4.185  1.1798 -1.4352 -0.7061
 5245WAT      O16136   0.348   4.214   0.896  0.0164  0.3631 -0.5624
 5245WAT     H116137   0.343   4.120   0.882 -0.3869  0.1619  0.8177
 5245WAT     H216138   0.309   4.229   0.982 -0.2400  1.8361 -0.8948
 5246WAT      O16139   6.274   0.473   2.602  0.0865  0.3614 -0.6212
 5246WAT     H116140   6.342   0.411   2.576  0.1272  0.6456 -1.2049
 5246WAT     H216141   6.320   0.541   2.651  0.0564 -0.0080 -0.0671
 5247WAT      O16142   2.304   6.026   1.042 -0.2357 -0.1910 -0.0526
 5247WAT     H116143   2.291   5.942   1.087  1.6961  0.5404  2.0952
 5247WAT     H216144   2.229   6.079   1.069 -1.1209 -0.9919 -0.8873
 5248WAT      O16145   1.074   0.921   2.844 -0.6845 -0.0711  0.2699
 5248WAT     H116146   1.025   0.903   2.925  2.3081  1.4083  2.6269
 5248WAT     H216147   1.077   1.016   2.838  1.4067 -0.1025 -0.0006
 5249WAT      O16148   3.659   5.237   1.032 -0.2374  0.2051  0.4596
 5249WAT     H116149   3.567   5.261   1.043 -0.0699  1.2331 -0.1349
 5249WAT     H216150   3.658   5.145   1.007 -0.8891 -0.7521  3.6565
 5250WAT      O16151   1.792   1.287   3.620  0.2891  0.2586  0.1335
 5250WAT     H116152   1.788   1.364   3.564 -2.2403  0.9181  1.1132
 5250WAT     H216153   1.737   1.222   3.576  0.2758 -0.0639  0.6188
 5251WAT      O16154   1.363   0.516   4.483  0.4965  0.2272 -0.3323
 5251WAT     H116155   1.279   0.485   4.447  0.5040 -2.0374  1.3609
 5251WAT     H216156   1.407   0.557   4.409  0.3808 -3.8398 -2.9650
 5252WAT      O16157   6.173   0.138   1.534  0.6123 -0.0233 -0.4969
 5252WAT     H116158   6.202   0.221   1.571 -0.6007  0.2700 -0.1439
 5252WAT     H216159   6.135   0.161   1.449 -0.9982  0.0288  0.1889
 5253WAT      O16160   3.964   3.581   3.151 -0.6522 -0.0042 -0.4820
 5253WAT     H116161   4.056   3.585   3.176 -0.9342  2.0519  0.4508
 5253WAT     H216162   3.952   3.654   3.090 -1.5852 -0.4562 -0.8646
 5254WAT      O16163   3.217   0.641   6.038  0.0642 -0.3366 -0.0233
 5254WAT     H116164   3.243   0.551   6.056 -0.7612 -0.4081  0.9095
 5254WAT     H216165   3.259   0.662   5.955  0.1505 -1.6337 -0.3322
 5255WAT      O16166   6.360   3.465   3.221  0.0749 -0.3127 -0.0328
 5255WAT     H116167   6.436   3.486   3.275 -0.4891  0.2609  0.5476
 5255WAT     H216168   6.288   3.455   3.283 -0.4873 -0.0883 -0.6429
 5256WAT      O16169   6.835   3.223   3.019  0.0833  0.0098  0.5982
 5256WAT     H116170   6.785   3.166   3.077 -3.0769 -0.5767 -2.3964
 5256WAT     H216171   6.796   3.310   3.032  2.3582  0.8787  2.3892
 5257WAT      O16172   1.261   5.744   3.688 -0.5180  0.1092  0.6353
 5257WAT     H116173   1.253   5.783   3.775  1.4442  1.4523  0.2821
 5257WAT     H216174   1.351   5.711   3.685 -0.4478  0.3758 -0.9841
 5258WAT      O16175   0.022   2.631   3.519  0.1157 -0.4242  0.1231
 5258WAT     H116176   0.030   2.545   3.477  0.6135  0.1471 -1.0159
 5258WAT     H216177  -0.024   2.614   3.601  1.0840 -1.9242  0.3995
 5259WAT      O16178   6.890   0.088   5.471  0.3279 -0.0981  0.4492
 5259WAT     H116179   6.847   0.016   5.517  2.2592 -1.3042  0.4870
 5259WAT     H216180   6.981   0.059   5.460  0.7945  1.6844 -0.9362
 5260WAT      O16181   2.705   1.270   4.776  0.0753 -0.1544 -0.0949
 5260WAT     H116182   2.738   1.292   4.863 -0.8466 -0.5514  0.3699
 5260WAT     H216183   2.623   1.319   4.768 -0.8376 -1.6051  0.0489
 5261WAT      O16184   5.348   2.550   0.868  0.0809  0.1847  0.1123
 5261WAT     H116185   5.268   2.532   0.918  0.3253 -2.8774 -0.3961
 5261WAT     H216186   5.316   2.588   0.786 -0.9566 -1.2311 -0.1894
 5262WAT      O16187   4.898   0.518   0.269  0.4711  0.1629 -0.3958
 5262WAT     H116188   4.886   0.423   0.270  0.7666  0.0725 -1.8700
 5262WAT     H216189   4.823   0.553   0.317  1.6221 -0.8814  2.3344
 5263WAT      O16190   5.758   1.256   4.230 -0.4662  0.0921 -0.3440
 5263WAT     H116191   5.734   1.242   4.139  1.3078  0.5653 -0.9216
 5263WAT     H216192   5.758   1.168   4.269 -0.1055 -0.2493 -1.1003
 5264WAT      O16193   5.776   3.116   3.117 -0.2247  0.0345 -0.0030
 5264WAT     H116194   5.871   3.115   3.124 -0.2861 -1.1412  0.8949
 5264WAT     H216195   5.752   3.209   3.122  0.8573  0.3291 -0.1678
 5265WAT      O16196   6.087   4.394   5.436  0.1896 -0.1880  0.4659
 5265WAT     H116197   6.001   4.425   5.410  1.0102  1.1586 -0.8411
 5265WAT     H216198   6.074   4.354   5.521 -1.5340  0.9512  0.7810
 5266WAT      O16199   0.958   4.380   2.918  0.0781  0.3443 -0.6945
 5266WAT     H116200   0.897   4.347   2.984 -0.6517  0.6189 -1.2170
 5266WAT     H216201   0.987   4.465   2.951  0.4922  0.0397 -0.2581
 5267WAT      O16202   6.123   0.123   3.853  0.1607  0.3891  1.0880
 5267WAT     H116203   6.146   0.161   3.768  0.2074  2.2558  1.8941
 5267WAT     H216204   6.183   0.049   3.863 -0.3649 -0.3480 -0.8209
 5268WAT      O16205   7.439   1.928   2.399  0.2658  0.4219 -0.1429
 5268WAT     H116206   7.526   1.922   2.438  0.0718  1.7361  0.5444
 5268WAT     H216207   7.379   1.924   2.474 -0.4512 -2.8185 -0.7147
 5269WAT      O16208   3.780   0.299   4.668  0.1294  0.2436  0.7069
 5269WAT     H116209   3.852   0.309   4.606  0.6418  0.6216  1.3523
 5269WAT     H216210   3.755   0.388   4.692 -0.8847  0.1290  0.1250
 5270WAT      O16211   0.131   5.077   3.821  0.3766 -0.0608 -0.3852
 5270WAT     H116212   0.215   5.122   3.818 -0.5109  1.6690 -1.5291
 5270WAT     H216213   0.148   4.996   3.868  2.1224  1.3997  1.7073
 5271WAT      O16214   3.030   2.289   5.788  0.1755 -0.0949 -0.0021
 5271WAT     H116215   3.071   2.217   5.836 -1.8189 -0.3606  1.4423
 5271WAT     H216216   2.953   2.312   5.840  0.9766  3.4895 -0.1194
 5272WAT      O16217   7.299   4.817   2.997  0.1646 -0.0633  0.5031
 5272WAT     H116218   7.253   4.901   2.999 -0.5090 -0.4433  1.3490
 5272WAT     H216219   7.282   4.778   3.082  0.2581 -1.1744  0.0290
 5273WAT      O16220   0.861   2.601   2.375  0.7340 -0.2239 -0.0178
 5273WAT     H116221   0.834   2.587   2.465  2.2218 -0.2586  0.4413
 5273WAT     H216222   0.784   2.576   2.323 -0.5478  0.8561  1.2549
 5274WAT      O16223   6.240   1.801   3.247  0.3456  0.3102 -0.2256
 5274WAT     H116224   6.281   1.788   3.162  0.7382  1.7030 -0.2732
 5274WAT     H216225   6.286   1.876   3.285 -0.4296  0.2787  0.8229
 5275WAT      O16226   1.778   2.355   3.343  0.2274 -0.2543 -0.1009
 5275WAT     H116227   1.715   2.425   3.329  0.6169 -0.0765 -1.0012
 5275WAT     H216228   1.747   2.311   3.422 -0.7444  0.1319 -0.2530
 5276WAT      O16229   6.021   0.631   0.279 -0.5916 -0.3615  0.1733
 5276WAT     H116230   6.081   0.665   0.212 -0.8795 -1.2943 -0.5862
 5276WAT     H216231   6.074   0.628   0.359 -0.0971  0.3086 -0.1120
 5277WAT      O16232   7.084   3.526   5.134  0.1944 -0.6623 -0.2380
 5277WAT     H116233   7.064   3.619   5.145  1.6648 -0.3886  0.3579
 5277WAT     H216234   7.117   3.519   5.045  2.0308 -0.2004  0.3619
 5278WAT      O16235   3.079   4.178   3.980 -1.2032 -0.1336  0.5668
 5278WAT     H116236   3.094   4.268   3.951  1.2859 -0.3900  0.8363
 5278WAT     H216237   3.071   4.128   3.899 -0.8536  0.0963  0.3862
 5279WAT      O16238   4.057   2.065   2.937 -0.0511 -0.4804  0.1665
 5279WAT     H116239   3.967   2.033   2.932  0.1181 -1.1018  0.9644
 5279WAT     H216240   4.093   2.023   3.015  0.3451  1.2208  0.9623
 5280WAT      O16241   5.993   4.496   4.458  0.6466  0.0421  0.2005
 5280WAT     H116242   6.003   4.584   4.494  0.9220 -0.2244  0.7990
 5280WAT     H216243   5.900   4.478   4.461  0.5194  0.5317 -0.4753
 5281WAT      O16244   4.175   0.682   1.672  0.1190 -0.5920 -0.1222
 5281WAT     H116245   4.157   0.619   1.742 -1.7050 -0.3179 -0.3059
 5281WAT     H216246   4.248   0.735   1.706 -0.6324 -0.5487  1.5143
 5282WAT      O16247   2.731   2.353   5.130  0.4322 -0.0899 -0.2704
 5282WAT     H116248   2.789   2.287   5.167 -0.5256 -0.0530  1.3968
 5282WAT     H216249   2.741   2.344   5.035  2.5167 -0.6206 -0.0428
 5283WAT      O16250   7.303   6.537   1.602  0.2668 -0.3509  0.7829
 5283WAT     H116251   7.389   6.555   1.641  0.3905  1.8579 -0.3128
 5283WAT     H216252   7.324   6.502   1.515  0.0188 -1.4129  1.1377
 5284WAT      O16253   5.695   1.243   2.660 -0.0178 -0.2046  0.1143
 5284WAT     H116254   5.710   1.319   2.716 -0.2538 -0.1285  0.0734
 5284WAT     H216255   5.781   1.226   2.620  0.2101 -0.4156  0.6859
 5285WAT      O16256   2.822   6.976   4.178 -0.1100  0.5977 -0.2544
 5285WAT     H116257   2.747   6.992   4.234 -0.2978  1.5927 -0.7551
 5285WAT     H216258   2.838   6.882   4.184 -0.4626  0.6105  1.0162
 5286WAT      O16259   2.794   4.129   1.896  0.6155  0.2198 -0.1036
 5286WAT     H116260   2.793   4.034   1.883 -0.0722  0.1224  0.5915
 5286WAT     H216261   2.740   4.143   1.974 -0.7006  1.3301 -1.1652
 5287WAT      O16262   5.411   0.103   3.785 -0.5976 -0.2151 -0.1433
 5287WAT     H116263   5.449   0.017   3.768 -1.0771 -0.1862 -1.4782
 5287WAT     H216264   5.437   0.123   3.875  1.3224 -0.8179 -0.5195
 5288WAT      O16265   4.324   3.040   5.439  0.7016  0.5372  0.4432
 5288WAT     H116266   4.416   3.042   5.465  1.2507  1.2985 -1.3633
 5288WAT     H216267   4.310   2.950   5.410 -0.0867 -0.4847  3.6819
 5289WAT      O16268   5.003   3.701   5.664 -0.2629 -0.0878  0.6701
 5289WAT     H116269   4.984   3.793   5.685  0.3747  0.4683 -0.9871
 5289WAT     H216270   4.917   3.659   5.662 -0.7448  0.8674 -0.1407
 5290WAT      O16271   6.587   4.946   5.593 -0.1356  0.5095 -0.2729
 5290WAT     H116272   6.585   4.953   5.688  0.3512 -1.7513 -0.0584
 5290WAT     H216273   6.502   4.911   5.569  0.8134 -1.9862 -0.3035
 5291WAT      O16274   3.951   3.275   1.330 -0.2377 -0.2355 -0.2087
 5291WAT     H116275   3.892   3.208   1.363 -0.9100  0.7630  0.6715
 5291WAT     H216276   3.986   3.317   1.409 -1.6311  1.9845 -0.7172
 5292WAT      O16277   5.068   0.990   6.252 -0.1956 -0.6742  0.2677
 5292WAT     H116278   5.024   1.006   6.168  0.0211 -0.1911  0.2443
 5292WAT     H216279   5.027   0.910   6.285  0.0313 -1.1252 -0.5101
 5293WAT      O16280   4.163   6.692   4.431 -0.1507  0.2254 -0.6925
 5293WAT     H116281   4.102   6.669   4.361 -0.7104  0.5792 -0.3304
 5293WAT     H216282   4.149   6.626   4.498 -0.8279  0.8546 -0.2040
 5294WAT      O16283   2.955   6.442   3.617  0.1177  0.1879 -0.2445
 5294WAT     H116284   2.937   6.461   3.709 -1.1199 -1.5425 -0.0706
 5294WAT     H216285   2.877   6.396   3.587  0.1975  1.3368 -2.3870
 5295WAT      O16286   7.566   6.133   5.816  0.2632  0.5450 -0.5716
 5295WAT     H116287   7.523   6.169   5.738 -1.2005 -0.4671 -0.2853
 5295WAT     H216288   7.496   6.087   5.862  0.9021  1.7592  1.7652
 5296WAT      O16289   0.204   4.207   5.966  0.7352  0.4270  0.2091
 5296WAT     H116290   0.239   4.124   5.932  1.1895  0.6386  0.1565
 5296WAT     H216291   0.151   4.181   6.042 -0.1165 -0.0239 -0.5305
 5297WAT      O16292   5.631   0.272   2.021 -0.3147  0.7002 -0.1155
 5297WAT     H116293   5.677   0.222   1.953 -1.4129 -0.7841  0.1908
 5297WAT     H216294   5.631   0.215   2.098 -1.0647  1.4116  0.4334
 5298WAT      O16295   2.396   5.625   4.853  0.5100  0.0558  0.1622
 5298WAT     H116296   2.354   5.546   4.887  0.0193 -0.2712 -1.1260
 5298WAT     H216297   2.383   5.691   4.921 -0.0348 -0.6729  0.7807
 5299WAT      O16298   3.921   1.536   6.010  0.3662  0.2061  0.3561
 5299WAT     H116299   3.969   1.607   5.966  1.1839 -0.3538  0.3128
 5299WAT     H216300   3.891   1.574   6.092  1.9948  0.2343  0.9740
 5300WAT      O16301   7.073   2.421   6.211 -0.5351  0.0774  0.2327
 5300WAT     H116302   6.999   2.473   6.242  0.3976  0.4507  1.9955
 5300WAT     H216303   7.133   2.420   6.285  0.5391 -1.5200 -0.6141
 5301WAT      O16304   4.411   2.787   3.368 -0.2463  0.5289  0.0822
 5301WAT     H116305   4.432   2.765   3.458  0.3850  0.4137 -0.0876
 5301WAT     H216306   4.464   2.865   3.349  0.1580  0.1505 -0.3964
 5302WAT      O16307   0.995   1.990   0.905  0.6771 -0.5231  0.1165
 5302WAT     H116308   0.954   1.906   0.882  0.9518 -0.6699  0.1626
 5302WAT     H216309   0.983   1.997   0.999 -0.7518  0.2393 -0.1040
 5303WAT      O16310   5.408   6.289   3.245  0.0404 -0.1943 -0.6830
 5303WAT     H116311   5.494   6.287   3.287 -0.3509  1.4924  0.2907
 5303WAT     H216312   5.389   6.382   3.234 -1.5065 -0.5464 -1.1984
 5304WAT      O16313   1.434   0.023   1.210 -0.0740 -0.2730  0.0652
 5304WAT     H116314   1.390  -0.053   1.250 -0.6248  0.3719  0.7100
 5304WAT     H216315   1.458   0.079   1.284 -1.3336  1.0683 -0.4845
 5305WAT      O16316   0.348   3.407   4.851 -0.0964 -0.5777  0.3737
 5305WAT     H116317   0.321   3.459   4.926 -1.8511  0.0886 -0.6548
 5305WAT     H216318   0.271   3.405   4.794  1.6980  0.5399 -2.2890
 5306WAT      O16319   0.283   6.286   1.591 -0.1288  0.0841 -0.0675
 5306WAT     H116320   0.335   6.239   1.657  0.7668  1.3395  0.1575
 5306WAT     H216321   0.342   6.354   1.558 -0.3487 -0.8572 -2.6012
 5307WAT      O16322   7.160   5.860   2.752  0.0924  0.5313  0.0313
 5307WAT     H116323   7.128   5.863   2.842  0.5770 -0.6943  0.2722
 5307WAT     H216324   7.234   5.800   2.755  0.4536  0.8963 -1.0895
 5308WAT      O16325   3.703   6.238   1.650 -0.4277  0.1966 -0.5917
 5308WAT     H116326   3.652   6.158   1.644 -0.2571  0.0238  0.1658
 5308WAT     H216327   3.638   6.307   1.662 -0.6770  0.3757 -2.7039
 5309WAT      O16328   4.422   1.083   4.744 -0.2206  0.9236  0.5213
 5309WAT     H116329   4.460   1.163   4.707  0.3289 -0.4142 -2.0436
 5309WAT     H216330   4.360   1.053   4.678  0.6952 -1.5588  0.6876
 5310WAT      O16331   1.916   4.319   4.473 -0.5827 -0.3025  0.1620
 5310WAT     H116332   1.908   4.401   4.520 -0.9566 -1.1621  1.6388
 5310WAT     H216333   1.830   4.278   4.479  0.2687 -1.9980  1.7678
 5311WAT      O16334   2.503   2.159   4.658  0.5471 -0.0196 -0.0053
 5311WAT     H116335   2.418   2.117   4.675  0.8498  0.4182  3.1068
 5311WAT     H216336   2.501   2.178   4.564 -2.4171 -0.8107 -0.2189
 5312WAT      O16337   2.531   1.717   5.229  0.0315 -0.1202  0.2097
 5312WAT     H116338   2.531   1.685   5.139 -1.7704  0.3333  0.0178
 5312WAT     H216339   2.621   1.705   5.258  0.9578  0.7856 -2.0227
 5313WAT      O16340   4.280   0.723   5.270  0.2394  0.3107  0.6337
 5313WAT     H116341   4.200   0.774   5.278 -0.1662 -0.1040 -0.5175
 5313WAT     H216342   4.267   0.649   5.330  0.9698  1.6738  2.5542
 5314WAT      O16343   2.813   5.718   2.441 -0.5745 -0.0062 -0.6381
 5314WAT     H116344   2.738   5.775   2.456  0.1254  0.7624  0.1233
 5314WAT     H216345   2.837   5.731   2.349 -2.8143 -2.1163 -1.6344
 5315WAT      O16346   1.967   4.562   5.546  0.2896  0.1904 -0.1659
 5315WAT     H116347   2.034   4.623   5.576  1.4806 -1.2784  0.3055
 5315WAT     H216348   1.941   4.516   5.626 -0.5457  0.0444 -0.5216
 5316WAT      O16349   1.912   2.720   0.580  0.5699  0.2889 -0.0742
 5316WAT     H116350   1.853   2.662   0.531 -0.0745  0.7791  0.0935
 5316WAT     H216351   1.960   2.768   0.512 -1.0961  1.7533 -0.3036
 5317WAT      O16352   2.257   2.469   3.104 -0.3399 -0.3629 -0.9691
 5317WAT     H116353   2.286   2.558   3.084 -0.0930 -0.1701  0.1427
 5317WAT     H216354   2.172   2.462   3.061 -0.3546  0.4068 -1.0939
 5318WAT      O16355   3.466   0.562   1.966 -0.0832 -0.5607  0.4150
 5318WAT     H116356   3.554   0.585   1.995 -0.1014  1.7214 -1.0750
 5318WAT     H216357   3.408   0.596   2.034  0.1098  0.1415  0.2419
 5319WAT      O16358   7.633   3.022   3.042 -0.6068  0.8758 -0.2362
 5319WAT     H116359   7.638   2.983   3.129 -0.2113  1.1326 -0.1421
 5319WAT     H216360   7.568   2.969   2.996 -3.1012  2.5474  1.1287
 5320WAT      O16361   1.907   3.101   2.078  0.4259 -0.3179 -0.2074
 5320WAT     H116362   1.864   3.129   2.158 -0.2009  0.1746 -0.7035
 5320WAT     H216363   1.839   3.057   2.028  0.3859  0.7711 -1.1522
 5321WAT      O16364   0.960   6.574   2.935  0.1499 -0.5643 -0.0635
 5321WAT     H116365   1.031   6.636   2.919  0.2108 -0.2374  1.3658
 5321WAT     H216366   0.965   6.513   2.862  0.3523  0.8618 -1.2769
 5322WAT      O16367   5.242   5.375   3.105  0.5041 -0.5523 -0.1035
 5322WAT     H116368   5.163   5.389   3.052  0.8331 -1.4588 -0.8525
 5322WAT     H216369   5.213   5.392   3.195 -0.2190  0.4079 -0.4893
 5323WAT      O16370   7.306   6.241   5.954  0.0208  0.4566  0.0171
 5323WAT     H116371   7.225   6.239   6.006  0.8757 -1.6241  1.4157
 5323WAT     H216372   7.279   6.209   5.868 -0.4828 -1.6246  0.8675
 5324WAT      O16373   5.771   5.045   5.456  0.1421  0.1042 -0.5101
 5324WAT     H116374   5.735   5.086   5.378 -2.9109 -2.6265 -0.7421
 5324WAT     H216375   5.846   4.994   5.425 -1.6214 -1.7611 -2.0241
 5325WAT      O16376   1.054   2.472   1.118 -0.5983  0.2233 -0.0575
 5325WAT     H116377   1.015   2.430   1.195  0.9074 -0.3483  0.4281
 5325WAT     H216378   1.139   2.429   1.107 -0.9123  0.0519 -2.2645
 5326WAT      O16379   3.910   4.155   5.099  0.3811  0.3872 -0.6354
 5326WAT     H116380   3.839   4.094   5.076  0.6784  0.4502 -1.7474
 5326WAT     H216381   3.898   4.169   5.193  0.0034 -0.9943 -0.4460
 5327WAT      O16382   0.143   3.241   2.405  0.2666  0.0428  0.3031
 5327WAT     H116383   0.079   3.209   2.341  1.0749 -0.4342 -0.2870
 5327WAT     H216384   0.213   3.279   2.352  0.4640  0.5851  0.9405
 5328WAT      O16385   6.738   7.009   2.920  0.0366 -0.3300  0.4593
 5328WAT     H116386   6.741   6.979   3.011  2.5444  0.7992  0.8139
 5328WAT     H216387   6.795   7.085   2.917  1.4157 -1.3306 -2.4187
 5329WAT      O16388   5.098   2.363   3.116 -0.0372  0.4629  0.0053
 5329WAT     H116389   5.127   2.383   3.027 -0.8794  0.8323 -0.1923
 5329WAT     H216390   5.041   2.436   3.140  0.1162  0.3300  0.8246
 5330WAT      O16391   1.242   3.018   5.792  0.3088 -0.0611 -0.0560
 5330WAT     H116392   1.148   3.026   5.775  0.3736 -0.5206 -0.6774
 5330WAT     H216393   1.280   2.995   5.707  0.9825  0.0863  0.1937
 5331WAT      O16394   1.972   2.432   0.664  0.0178  0.3616  0.4612
 5331WAT     H116395   1.981   2.365   0.732 -0.6079 -0.5472 -0.3284
 5331WAT     H216396   2.013   2.393   0.587 -0.9084  0.6322 -0.1830
 5332WAT      O16397   3.872   4.382   2.596 -0.2503 -0.1716 -0.2138
 5332WAT     H116398   3.820   4.306   2.570 -1.8589  0.6128  0.6012
 5332WAT     H216399   3.820   4.458   2.568  0.6188  0.6368  0.3085
 5333WAT      O16400   3.346   4.400   5.922  0.3439 -0.4650  0.0932
 5333WAT     H116401   3.421   4.378   5.977  1.0516  0.2727 -0.5667
 5333WAT     H216402   3.367   4.363   5.836  0.4205  0.5951 -0.3603
 5334WAT      O16403   3.529   6.204   5.727  0.2693  0.1853  0.5701
 5334WAT     H116404   3.552   6.283   5.775  2.4647  0.2379 -0.4600
 5334WAT     H216405   3.591   6.138   5.757 -1.3618 -1.1259  1.2214
 5335WAT      O16406   0.250   3.362   1.808  0.0318  0.4145  0.1690
 5335WAT     H116407   0.219   3.395   1.893  0.4220  0.9413  0.1127
 5335WAT     H216408   0.221   3.271   1.806 -1.0359  0.7361  0.3548
 5336WAT      O16409   1.525   1.721   1.494 -0.4402 -0.4940 -0.5741
 5336WAT     H116410   1.537   1.626   1.495  0.1208 -0.4202 -0.0100
 5336WAT     H216411   1.511   1.745   1.585  0.0492  0.0398 -0.6309
 5337WAT      O16412   6.992   1.960   3.776  0.4751  0.6560  0.2063
 5337WAT     H116413   7.084   1.938   3.790  0.4195  1.2418  1.6436
 5337WAT     H216414   6.992   2.055   3.760  0.0173  0.9420  1.7021
 5338WAT      O16415   2.951   1.151   5.622 -0.2713 -0.0243 -0.2945
 5338WAT     H116416   3.002   1.124   5.546 -0.1959 -2.2954  0.4994
 5338WAT     H216417   3.016   1.174   5.688 -0.3291  0.6757 -0.4729
 5339WAT      O16418   0.321   6.759   5.400 -0.2377 -0.3586  0.4275
 5339WAT     H116419   0.272   6.791   5.476 -0.3171 -1.9951  1.1164
 5339WAT     H216420   0.305   6.664   5.400  1.0105 -0.5945 -0.7327
 5340WAT      O16421   1.729   2.657   4.081 -0.4161  0.1331  0.0698
 5340WAT     H116422   1.824   2.663   4.090 -0.2472 -0.9996 -0.7260
 5340WAT     H216423   1.703   2.599   4.153 -0.4643  0.1939  0.1010
 5341WAT      O16424   0.892   0.615   5.272  0.0956  0.0112 -0.0310
 5341WAT     H116425   0.926   0.529   5.298  1.1064  0.3626 -0.1868
 5341WAT     H216426   0.926   0.676   5.337  2.2842  0.8299 -1.8251
 5342WAT      O16427   5.372   4.490   3.505 -0.2585 -0.1712  0.2618
 5342WAT     H116428   5.359   4.494   3.600 -1.5343 -0.3179  0.1048
 5342WAT     H216429   5.384   4.581   3.478  0.5166 -0.1639  0.6089
 5343WAT      O16430   7.018   3.994   4.332 -0.6482  0.1187 -0.0293
 5343WAT     H116431   6.934   3.957   4.358 -0.5317 -0.5834 -0.6339
 5343WAT     H216432   7.082   3.947   4.384 -0.4449 -1.0310 -1.2787
 5344WAT      O16433   0.535   4.700   5.294 -0.1495  0.7027  0.1923
 5344WAT     H116434   0.559   4.735   5.380 -1.3000  0.5440  0.6000
 5344WAT     H216435   0.446   4.732   5.279 -1.0512 -1.5459  0.3411
 5345WAT      O16436   6.215   6.319   0.897  0.4327 -0.1159 -0.0864
 5345WAT     H116437   6.236   6.346   0.986  1.9574 -2.2335  0.2812
 5345WAT     H216438   6.285   6.355   0.844 -0.1877  0.6967 -0.3742
 5346WAT      O16439   5.516   3.618   0.948  0.9044  0.4485  0.1223
 5346WAT     H116440   5.562   3.604   0.866 -0.0403 -2.8520  0.0226
 5346WAT     H216441   5.462   3.540   0.959 -0.1607  1.4704  3.1424
 5347WAT      O16442   0.714   5.734   2.330 -0.2720 -0.1808  0.0788
 5347WAT     H116443   0.712   5.650   2.376  0.3320 -1.2129 -1.6969
 5347WAT     H216444   0.632   5.777   2.355 -0.6875 -1.3725  0.8471
 5348WAT      O16445   7.384   6.197   3.650 -0.0129  0.5727 -0.2499
 5348WAT     H116446   7.467   6.181   3.603  0.7832 -0.7723  1.5002
 5348WAT     H216447   7.400   6.278   3.698  0.6648 -0.1487  0.7877
 5349WAT      O16448   3.384   2.406   1.352 -0.5359  0.0770  0.2601
 5349WAT     H116449   3.458   2.354   1.383  1.2228  1.5357 -1.2360
 5349WAT     H216450   3.341   2.437   1.432  1.6545  0.7786  1.2369
 5350WAT      O16451   3.287   2.443   4.053  0.0896  0.5321 -0.3481
 5350WAT     H116452   3.340   2.504   4.002  1.1060 -0.2779 -0.3033
 5350WAT     H216453   3.321   2.452   4.143 -0.4274  0.6230 -0.1615
 5351WAT      O16454   4.023   3.181   3.677  0.0075  0.3033  0.1225
 5351WAT     H116455   4.037   3.179   3.771 -0.1527 -0.5408  0.1424
 5351WAT     H216456   4.108   3.203   3.640 -0.5548  3.6219  0.5521
 5352WAT      O16457   0.017   0.973   4.952 -0.2189  0.1875  0.2534
 5352WAT     H116458  -0.012   0.886   4.922  0.9040  0.1476 -0.8018
 5352WAT     H216459  -0.059   1.010   4.996 -1.2215 -0.7020 -0.6736
 5353WAT      O16460   1.091   0.357   5.335 -0.6293  0.0316  0.2367
 5353WAT     H116461   1.141   0.438   5.329 -0.7404  0.4173  2.9606
 5353WAT     H216462   1.154   0.288   5.314 -0.0203  0.7137 -0.2307
 5354WAT      O16463   3.761   5.876   4.931 -0.2527 -0.1878  0.4042
 5354WAT     H116464   3.666   5.873   4.923 -0.2641 -1.4896  0.7442
 5354WAT     H216465   3.788   5.949   4.875 -1.3738 -0.3899 -0.4352
 5355WAT      O16466   6.219   2.475   0.374  0.2154 -0.2601 -0.0166
 5355WAT     H116467   6.283   2.471   0.445 -0.4217  1.8278  0.7594
 5355WAT     H216468   6.188   2.566   0.375 -2.0062 -0.9329 -1.0392
 5356WAT      O16469   3.557   3.368   6.221  0.4769 -0.5626 -0.3210
 5356WAT     H116470   3.497   3.311   6.174 -1.0237  0.0507  0.7854
 5356WAT     H216471   3.555   3.336   6.311  2.4002 -0.9798 -0.3746
 5357WAT      O16472   5.883   3.934   0.605  0.3528  0.0515  0.9503
 5357WAT     H116473   5.943   3.873   0.646 -0.7336 -0.3757  1.9646
 5357WAT     H216474   5.863   3.999   0.673  1.6653  1.7165 -0.1744
 5358WAT      O16475   0.524   3.747   2.601  0.4967 -0.3674  0.5608
 5358WAT     H116476   0.439   3.718   2.634  0.2545  1.4972  1.7136
 5358WAT     H216477   0.588   3.699   2.654  0.2107 -1.7354 -0.2734
 5359WAT      O16478   0.168   3.632   2.629 -0.2915 -0.0658 -0.0886
 5359WAT     H116479   0.142   3.718   2.599 -2.2867 -0.6561 -0.1965
 5359WAT     H216480   0.116   3.617   2.708 -0.0804 -1.2171 -0.1467
 5360WAT      O16481   6.913   6.510   2.311  0.6115 -0.2487 -0.1091
 5360WAT     H116482   6.928   6.553   2.227  0.2366 -0.9050 -0.5247
 5360WAT     H216483   6.993   6.459   2.326  0.7295 -0.0338 -0.0053
 5361WAT      O16484   7.021   1.742   1.586  1.1238 -0.2928  0.2560
 5361WAT     H116485   6.936   1.781   1.565  0.9835 -1.0736 -0.6531
 5361WAT     H216486   7.015   1.719   1.679  0.5819  0.2425  0.3584
 5362WAT      O16487   4.263   0.866   0.681 -0.2854 -0.2503  0.0196
 5362WAT     H116488   4.290   0.780   0.650  1.5274 -0.3433  1.6994
 5362WAT     H216489   4.323   0.927   0.638  0.2293 -0.1021  0.9299
 5363WAT      O16490   0.472   6.921   3.664  0.1897  0.2592 -0.3808
 5363WAT     H116491   0.453   6.831   3.639 -0.3373  0.1158  0.4854
 5363WAT     H216492   0.521   6.913   3.746 -2.1357  0.7653  1.1646
 5364WAT      O16493   6.552   4.732   6.105 -0.2065  0.2348  0.2370
 5364WAT     H116494   6.501   4.761   6.180  0.1382 -0.5980  0.8162
 5364WAT     H216495   6.635   4.780   6.111  0.2931 -0.6969  1.0892
 5365WAT      O16496   6.039   5.765   1.482 -0.1212  0.0296  0.2818
 5365WAT     H116497   5.963   5.779   1.425 -0.4371 -3.2009 -0.2684
 5365WAT     H216498   6.001   5.739   1.566  0.4054  0.8118  0.7782
 5366WAT      O16499   0.660   4.757   5.776 -0.2355  0.1203 -0.1965
 5366WAT     H116500   0.712   4.757   5.856  0.4611  0.0386 -0.6394
 5366WAT     H216501   0.570   4.763   5.806 -0.1222 -1.8839  0.6941
 5367WAT      O16502   5.220   1.088   4.107 -0.1548  0.1683  0.1309
 5367WAT     H116503   5.284   1.140   4.155 -0.6292  0.1249  0.8232
 5367WAT     H216504   5.147   1.078   4.168  0.0602 -1.6027  0.1466
 5368WAT      O16505   6.201   5.797   2.176  0.5864 -0.1581  0.1467
 5368WAT     H116506   6.154   5.863   2.228  1.8686  0.0739  1.0558
 5368WAT     H216507   6.278   5.776   2.229  1.3497 -0.7502 -1.1693
 5369WAT      O16508   7.237   2.765   3.221 -0.1940 -0.0447  0.6571
 5369WAT     H116509   7.259   2.836   3.281 -1.0862 -0.2266  1.2185
 5369WAT     H216510   7.179   2.805   3.156  0.5455  0.0871  0.0647
 5370WAT      O16511   5.402   6.796   5.460  0.3298  0.0062 -0.4679
 5370WAT     H116512   5.470   6.742   5.421  1.5239  1.4113 -0.4366
 5370WAT     H216513   5.438   6.885   5.458 -1.2160  0.6873  0.2104
 5371WAT      O16514   0.603   6.407   4.738  0.2626 -0.5398 -0.4587
 5371WAT     H116515   0.546   6.358   4.679 -2.2420 -0.8713  1.9699
 5371WAT     H216516   0.562   6.493   4.744  0.5676 -0.4546  0.6125
 5372WAT      O16517   6.093   3.093   5.302  0.5562 -0.1339  0.5746
 5372WAT     H116518   6.121   3.052   5.384 -0.6364 -1.8686  0.1749
 5372WAT     H216519   6.011   3.137   5.323  1.0637  0.7956  0.6551
 5373WAT      O16520   0.229   1.592   2.650  0.2249  0.7046  0.1449
 5373WAT     H116521   0.238   1.562   2.740  1.9129  1.8297  0.4102
 5373WAT     H216522   0.311   1.565   2.608 -1.0368 -0.9156 -1.4512
 5374WAT      O16523   5.013   4.196   5.847  0.3392  0.2949 -0.5369
 5374WAT     H116524   5.026   4.243   5.930 -2.2927  0.4910 -0.1395
 5374WAT     H216525   4.982   4.263   5.786 -3.4689 -0.7025  0.0335
 5375WAT      O16526   7.222   5.656   4.764 -0.2547 -0.9732  0.2417
 5375WAT     H116527   7.231   5.622   4.853  2.2129 -2.4232 -0.4849
 5375WAT     H216528   7.171   5.736   4.775 -1.2631 -1.8540  2.7581
 5376WAT      O16529   7.612   4.600   3.206  0.4752  0.2522  0.0248
 5376WAT     H116530   7.616   4.505   3.196  1.0738  0.2305  0.4649
 5376WAT     H216531   7.699   4.631   3.182 -0.4867  0.9881 -3.0067
 5377WAT      O16532   2.548   5.188   2.347 -0.6993 -0.0396 -0.2078
 5377WAT     H116533   2.457   5.180   2.376 -1.5341  1.2997 -2.2260
 5377WAT     H216534   2.566   5.104   2.305 -0.0019 -1.3735  2.5187
 5378WAT      O16535   5.277   1.753   1.536  0.8008  0.1642 -0.2502
 5378WAT     H116536   5.335   1.748   1.460  1.4312 -1.8836  0.3272
 5378WAT     H216537   5.335   1.761   1.611  0.3581 -1.3552  0.2892
 5379WAT      O16538   4.542   6.670   0.566 -0.4921  0.4565 -0.5946
 5379WAT     H116539   4.597   6.747   0.552  2.2221 -1.1344  0.5770
 5379WAT     H216540   4.576   6.605   0.504 -0.6658 -0.7292  0.5167
 5380WAT      O16541   7.190   6.234   0.431 -0.4050  0.2085 -0.1694
 5380WAT     H116542   7.195   6.328   0.415 -0.4510  0.4501  1.1399
 5380WAT     H216543   7.106   6.220   0.474  0.2532 -0.1911  1.0460
 5381WAT      O16544   5.990   6.843   2.668  0.4459 -0.0787 -0.3279
 5381WAT     H116545   5.967   6.751   2.685 -0.4841  0.2196  0.1231
 5381WAT     H216546   5.905   6.887   2.663  0.9164  0.9941  0.8531
 5382WAT      O16547   2.177   3.603   3.186 -0.0868 -0.5549  0.0078
 5382WAT     H116548   2.169   3.510   3.165 -0.2049 -0.5109 -0.1470
 5382WAT     H216549   2.251   3.633   3.134  1.4745 -1.0726  1.8218
 5383WAT      O16550   5.985   4.565   2.372  0.0230 -0.1096  0.1993
 5383WAT     H116551   5.898   4.550   2.408  0.9149 -0.9554  2.1534
 5383WAT     H216552   6.027   4.479   2.377  0.7969  0.1519 -1.2763
 5384WAT      O16553   7.240   3.851   1.102 -0.4682 -0.0888 -0.0546
 5384WAT     H116554   7.231   3.946   1.104 -1.3750 -0.1518 -0.3114
 5384WAT     H216555   7.267   3.827   1.190 -1.2574  0.3295  0.3131
 5385WAT      O16556   1.987   0.469   3.592  0.4377 -0.5093  0.3507
 5385WAT     H116557   2.028   0.467   3.506 -0.0136  2.4967 -0.0322
 5385WAT     H216558   1.964   0.378   3.610  2.5880 -1.5445 -1.6631
 5386WAT      O16559   2.150   3.841   5.500 -0.5932 -0.2291  0.0037
 5386WAT     H116560   2.076   3.782   5.509 -0.8591 -0.0771 -1.0607
 5386WAT     H216561   2.115   3.918   5.456  0.0372  0.1566  0.1550
 5387WAT      O16562   5.093   0.112   0.321 -0.1115  0.5131 -0.3262
 5387WAT     H116563   5.097   0.168   0.399 -0.3450  0.4154 -0.2419
 5387WAT     H216564   5.030   0.156   0.264  0.1046  0.6156 -0.4861
 5388WAT      O16565   6.925   1.810   2.424 -0.3582 -0.3606  0.5263
 5388WAT     H116566   7.015   1.777   2.419  0.6079  2.0159  0.9720
 5388WAT     H216567   6.935   1.905   2.430 -2.9697  0.0831 -0.9654
 5389WAT      O16568   2.074   0.472   4.558 -0.2499 -0.1150 -0.0018
 5389WAT     H116569   2.062   0.390   4.605 -2.1689 -1.0043 -1.8431
 5389WAT     H216570   2.140   0.520   4.608  2.3993 -3.5465  0.1062
 5390WAT      O16571   5.226   6.889   4.275 -0.0375 -0.2405  0.1344
 5390WAT     H116572   5.204   6.925   4.361 -0.1251 -0.6340  0.2757
 5390WAT     H216573   5.142   6.866   4.236  0.0082 -0.1470 -0.0196
 5391WAT      O16574   7.205   4.432   2.350 -0.0114  1.3727 -0.0947
 5391WAT     H116575   7.146   4.358   2.360  0.6056  0.2708 -3.3492
 5391WAT     H216576   7.215   4.467   2.439 -1.0577 -1.8409  1.4513
 5392WAT      O16577   2.585   0.513   1.909  0.1198 -0.3716  0.5824
 5392WAT     H116578   2.504   0.553   1.877  0.6804 -0.6331 -1.3181
 5392WAT     H216579   2.653   0.548   1.851  1.1520 -1.2950  1.1939
 5393WAT      O16580   1.359   0.627   3.241  0.4159  0.0719 -0.1597
 5393WAT     H116581   1.374   0.686   3.167  0.5690  0.0910 -0.1143
 5393WAT     H216582   1.290   0.670   3.292 -0.1543 -0.2638 -0.6350
 5394WAT      O16583   4.905   0.513   0.957  0.3842 -0.6702 -0.3427
 5394WAT     H116584   4.886   0.420   0.942  2.3634 -1.3449  0.8019
 5394WAT     H216585   4.951   0.541   0.878  1.8753 -1.3813  0.2252
 5395WAT      O16586   6.972   4.762   4.579  0.1437 -0.5787  0.1481
 5395WAT     H116587   6.900   4.727   4.632  1.5094 -2.9650  0.5917
 5395WAT     H216588   7.010   4.831   4.633 -0.3812 -0.8885  0.9286
 5396WAT      O16589   0.641   2.783   1.910 -0.1426 -0.9165 -0.3274
 5396WAT     H116590   0.577   2.798   1.979  0.0653 -0.2991 -0.2586
 5396WAT     H216591   0.723   2.817   1.946 -0.4795  1.7060 -1.7485
 5397WAT      O16592   5.111   1.602   0.257 -0.3049 -0.4437 -0.4397
 5397WAT     H116593   5.029   1.576   0.215  0.6679 -4.6700 -0.1225
 5397WAT     H216594   5.141   1.523   0.303  2.1575  1.9569  2.5303
 5398WAT      O16595   0.987   2.927   1.800  0.2970 -0.8072  0.3540
 5398WAT     H116596   1.011   2.978   1.878  0.4794  0.8721 -0.7560
 5398WAT     H216597   0.893   2.912   1.810 -0.3828  2.0888 -0.4847
 5399WAT      O16598   2.824   5.943   4.065 -0.7638  0.2762 -0.0870
 5399WAT     H116599   2.872   5.892   3.999 -1.4622 -0.5538  0.0240
 5399WAT     H216600   2.799   5.879   4.132 -0.3161  1.0542  0.8543
 5400WAT      O16601   3.168   6.871   5.565  0.3964 -0.2055  0.2356
 5400WAT     H116602   3.234   6.933   5.533 -0.1376  0.4159  0.3070
 5400WAT     H216603   3.213   6.787   5.568  0.1728 -0.6357 -3.4812
 5401WAT      O16604   4.247   5.111   1.025  0.6526 -0.0845 -0.0514
 5401WAT     H116605   4.308   5.166   1.075  1.1479 -1.4209  0.8568
 5401WAT     H216606   4.194   5.174   0.975  1.4182  1.1970  0.6913
 5402WAT      O16607   5.929   5.742   2.115 -0.4886  0.2143  0.0354
 5402WAT     H116608   6.024   5.756   2.108 -0.4399 -0.6353 -1.4478
 5402WAT     H216609   5.900   5.806   2.180  0.7019  2.3890 -1.4603
 5403WAT      O16610   2.129   0.775   2.038 -0.1402 -0.0445 -0.1254
 5403WAT     H116611   2.042   0.809   2.019  0.4587  0.2897 -2.6102
 5403WAT     H216612   2.186   0.852   2.038  0.3656 -0.4101  0.0551
 5404WAT      O16613   7.032   4.724   5.381 -0.2240 -0.4617 -0.0267
 5404WAT     H116614   7.017   4.731   5.475 -0.2863 -1.1069  0.0132
 5404WAT     H216615   7.032   4.630   5.363  1.8307 -0.4586 -0.3401
 5405WAT      O16616   6.622   6.206   3.244 -0.7501  0.0006  0.1238
 5405WAT     H116617   6.653   6.269   3.309 -1.0011  0.4008 -0.1410
 5405WAT     H216618   6.628   6.121   3.288  2.7878 -0.2722 -0.6085
 5406WAT      O16619   4.987   2.101   5.569 -0.3941 -0.1540 -1.0049
 5406WAT     H116620   4.958   2.192   5.567  1.5974  0.5447 -1.0166
 5406WAT     H216621   5.068   2.103   5.621 -0.9741 -2.1431  0.1048
 5407WAT      O16622   7.045   4.253   1.570 -0.5800  0.3419  0.3988
 5407WAT     H116623   7.070   4.263   1.478 -3.2770 -1.6859 -0.7198
 5407WAT     H216624   7.073   4.334   1.612  3.1680  0.2726 -1.5489
 5408WAT      O16625   4.253   4.209   0.213  0.4270 -0.0268 -0.4022
 5408WAT     H116626   4.171   4.246   0.245  0.5598  1.6039 -1.7977
 5408WAT     H216627   4.298   4.283   0.171  2.9880 -0.6777  0.9905
 5409WAT      O16628   7.571   5.621   4.764  0.0025  0.2892 -0.2692
 5409WAT     H116629   7.495   5.665   4.802  0.3236  0.3262  0.3399
 5409WAT     H216630   7.631   5.692   4.740  0.0743  0.2312 -0.2618
 5410WAT      O16631   2.697   2.680   6.126  0.4521 -0.1506  0.2161
 5410WAT     H116632   2.770   2.701   6.183  0.6909 -0.0083 -0.1365
 5410WAT     H216633   2.623   2.728   6.162  1.0698  1.6170 -0.7836
 5411WAT      O16634   2.301   2.175   4.022 -0.4048 -0.8112  0.4848
 5411WAT     H116635   2.292   2.228   3.942  0.3688 -1.2705  0.0738
 5411WAT     H216636   2.338   2.092   3.991  0.0073 -0.9566  1.3375
 5412WAT      O16637   7.415   6.178   0.040  0.1556  0.1673  0.0949
 5412WAT     H116638   7.447   6.106  -0.013 -1.0063 -0.8771  0.7621
 5412WAT     H216639   7.351   6.138   0.099 -0.5323  1.7439  0.4726
 5413WAT      O16640   4.896   1.108   1.701 -0.2349 -0.2766 -0.3107
 5413WAT     H116641   4.919   1.054   1.776  0.3512 -0.0467 -0.3221
 5413WAT     H216642   4.908   1.198   1.731  0.6533 -0.1948 -0.8712
 5414WAT      O16643   0.231   4.641   6.044  0.4679  0.3463  0.0747
 5414WAT     H116644   0.188   4.714   5.999 -0.5879 -1.1097 -1.3665
 5414WAT     H216645   0.164   4.603   6.100  0.1590 -1.1715 -1.2497
 5415WAT      O16646   2.912   2.799   3.060 -0.3171  0.2572  0.6285
 5415WAT     H116647   2.962   2.878   3.081 -0.5680  0.4139  0.6373
 5415WAT     H216648   2.978   2.729   3.056 -0.2861  0.1798  2.1479
 5416WAT      O16649   6.016   7.184   0.900 -0.2226 -0.3245  0.5639
 5416WAT     H116650   5.951   7.128   0.940 -0.7664 -0.4951 -0.5122
 5416WAT     H216651   6.089   7.126   0.878  0.7964  0.0477  2.7390
 5417WAT      O16652   0.275   3.587   5.052 -0.1443  0.2860  0.1878
 5417WAT     H116653   0.279   3.681   5.066 -1.0226  1.0447 -3.5540
 5417WAT     H216654   0.231   3.552   5.130  0.4535  2.8539  1.7916
 5418WAT      O16655   3.816   1.019   2.673  0.0264 -0.0201  0.2470
 5418WAT     H116656   3.832   1.058   2.759 -1.2310  2.0152 -0.3615
 5418WAT     H216657   3.899   0.978   2.649  1.0362  1.1679  1.5310
 5419WAT      O16658   6.956   1.058   5.171 -0.0870 -0.7093  0.1382
 5419WAT     H116659   6.966   0.967   5.200 -0.5571 -0.6920  0.3595
 5419WAT     H216660   7.015   1.108   5.227 -2.9274 -0.2833  3.0357
 5420WAT      O16661   4.767   4.400   0.120  0.5411 -0.3291  0.1090
 5420WAT     H116662   4.732   4.408   0.209  2.0964  1.8894  0.6139
 5420WAT     H216663   4.850   4.355   0.130  1.5252  1.3859  0.0801
 5421WAT      O16664   4.005   6.400   5.441 -0.3704  0.2566 -0.4947
 5421WAT     H116665   3.964   6.317   5.418 -1.2347  0.2478  0.9650
 5421WAT     H216666   4.040   6.387   5.529 -0.0483  1.2729 -0.4538
 5422WAT      O16667   7.336   6.602   2.852  0.2178 -0.1708 -0.5354
 5422WAT     H116668   7.247   6.572   2.870  0.3496 -0.0654  0.3633
 5422WAT     H216669   7.325   6.677   2.793 -0.3785  0.5715  0.4834
 5423WAT      O16670   7.569   4.012   5.723 -0.5351  0.0207  0.5917
 5423WAT     H116671   7.558   4.030   5.816  0.1762  1.1901  0.4739
 5423WAT     H216672   7.660   4.037   5.704 -0.5577 -0.5389 -0.3407
 5424WAT      O16673   7.460   1.776   3.968 -0.7627  0.1190 -0.4069
 5424WAT     H116674   7.505   1.858   3.950 -1.5419  0.3860 -1.1971
 5424WAT     H216675   7.519   1.708   3.937  0.4727  0.2722  1.4132
 5425WAT      O16676   2.829   1.802   2.851 -0.5934 -0.0587  0.3734
 5425WAT     H116677   2.869   1.802   2.938 -0.0408  1.2645  0.1494
 5425WAT     H216678   2.830   1.710   2.824  0.1500 -0.3574  1.3464
 5426WAT      O16679   6.639   4.726   1.594  0.2388 -0.1075 -0.4343
 5426WAT     H116680   6.700   4.791   1.560  0.0992 -0.0916 -0.6590
 5426WAT     H216681   6.553   4.767   1.583  0.2450  0.2286  0.6742
 5427WAT      O16682   4.035   6.498   1.165  0.6312 -0.6908 -0.4346
 5427WAT     H116683   3.981   6.525   1.091  0.6907 -0.3881 -0.3711
 5427WAT     H216684   3.981   6.436   1.214 -0.3998  0.9904  0.6617
 5428WAT      O16685   2.125   4.652   2.716 -0.4928  0.0858  0.6276
 5428WAT     H116686   2.059   4.717   2.691 -0.3575 -0.4362 -1.2739
 5428WAT     H216687   2.075   4.576   2.745 -0.7407 -0.0831 -0.2116
 5429WAT      O16688   2.416   2.004   3.838 -0.0603 -0.0518 -0.2065
 5429WAT     H116689   2.395   1.919   3.797  2.0216 -0.3770 -0.7139
 5429WAT     H216690   2.462   2.052   3.769 -2.5374  2.1915 -0.4694
 5430WAT      O16691   5.215   3.206   3.152  0.2589  0.0536 -0.0753
 5430WAT     H116692   5.222   3.273   3.083  1.7549 -1.1199 -1.1089
 5430WAT     H216693   5.289   3.148   3.137 -0.8509 -1.7069  0.9593
 5431WAT      O16694   2.708   3.825   2.227 -0.4554  0.2373  0.2580
 5431WAT     H116695   2.693   3.839   2.320 -1.3407  0.2510  0.1154
 5431WAT     H216696   2.778   3.760   2.225 -1.6526 -1.1434  0.9650
 5432WAT      O16697   0.263   7.091   5.820 -0.0712 -0.3947 -0.2593
 5432WAT     H116698   0.258   7.186   5.808  1.7373 -0.0843  1.1656
 5432WAT     H216699   0.268   7.079   5.914  1.5082 -1.7849 -0.4871
 5433WAT      O16700   2.716   0.211   1.281  0.2173 -0.0997  0.1152
 5433WAT     H116701   2.802   0.172   1.265  0.0349  0.0193 -1.2456
 5433WAT     H216702   2.702   0.200   1.376  1.6838 -0.1858  0.3395
 5434WAT      O16703   3.391   1.108   4.444 -0.8541  0.5455 -0.1550
 5434WAT     H116704   3.337   1.100   4.523 -2.5226  1.2461 -1.1718
 5434WAT     H216705   3.447   1.183   4.461 -1.0692  0.5747  0.4544
 5435WAT      O16706   1.258   4.030   2.366 -0.1958  0.6359 -0.4189
 5435WAT     H116707   1.351   4.042   2.346  0.5142 -0.8009  1.6443
 5435WAT     H216708   1.248   3.936   2.377 -1.6702  0.8541  0.3736
 5436WAT      O16709   0.552   5.101   2.185  0.2348 -0.0740  0.4835
 5436WAT     H116710   0.522   5.097   2.276 -2.1179  3.5994  0.0830
 5436WAT     H216711   0.473   5.082   2.133  1.1776 -0.6623 -0.7725
 5437WAT      O16712   0.221   4.189   2.210  0.0723 -0.5248 -0.7640
 5437WAT     H116713   0.304   4.236   2.219  0.8033 -2.0202  1.0705
 5437WAT     H216714   0.208   4.178   2.116  0.9330  1.4390 -1.1489
 5438WAT      O16715   5.262   3.476   2.068  0.2346 -0.2214  0.2051
 5438WAT     H116716   5.169   3.485   2.091  0.6278  0.0333  1.8810
 5438WAT     H216717   5.273   3.530   1.990 -0.7583  0.8792  0.7850
 5439WAT      O16718   1.402   7.186   5.557  0.4241 -0.1408  0.3921
 5439WAT     H116719   1.347   7.107   5.557  0.1184  0.0485  2.0683
 5439WAT     H216720   1.350   7.252   5.603  0.4625  1.2425 -1.4110
 5440WAT      O16721   6.497   2.700   3.954  0.0288 -0.3786  0.0490
 5440WAT     H116722   6.512   2.746   3.872  2.9764 -1.2487  0.0013
 5440WAT     H216723   6.496   2.769   4.020  4.7271  0.0465  0.0277
 5441WAT      O16724   2.220   5.660   3.349 -0.1483  0.2748  0.2630
 5441WAT     H116725   2.248   5.571   3.330 -1.4816 -0.0033 -0.5235
 5441WAT     H216726   2.145   5.650   3.408 -0.1053  0.8829  0.4320
 5442WAT      O16727   1.964   1.863   1.941  0.0896  0.1423  0.2590
 5442WAT     H116728   1.968   1.954   1.911  1.8838  0.2520  0.7707
 5442WAT     H216729   1.891   1.862   2.003  0.1952  1.2846  0.4297
 5443WAT      O16730   5.541   4.517   5.257 -0.3521  0.2828  0.2207
 5443WAT     H116731   5.479   4.531   5.186 -0.2837 -1.8543 -0.3174
 5443WAT     H216732   5.507   4.571   5.329 -1.7467  0.6314 -0.6566
 5444WAT      O16733   5.378   0.570   3.103  0.6428  0.0565 -0.0337
 5444WAT     H116734   5.397   0.660   3.130 -1.9374  0.9526 -0.8613
 5444WAT     H216735   5.356   0.525   3.184  0.9230  0.4600  0.2724
 5445WAT      O16736   6.787   5.912   2.137 -0.8368 -0.2953 -0.1492
 5445WAT     H116737   6.797   6.000   2.173 -1.9442 -0.8740  1.7124
 5445WAT     H216738   6.787   5.924   2.042 -1.5644  1.7843  0.0739
 5446WAT      O16739   5.691   5.999   5.141  0.4923 -0.3323  0.4585
 5446WAT     H116740   5.627   5.956   5.084 -0.6547  0.6037  1.0047
 5446WAT     H216741   5.773   5.995   5.091  0.1784 -2.1126  0.0092
 5447WAT      O16742   3.537   4.987   4.242  0.0536 -0.3274 -0.1552
 5447WAT     H116743   3.471   5.051   4.216  0.2908 -0.5239 -1.2628
 5447WAT     H216744   3.487   4.908   4.263 -0.1512 -0.1110  0.1853
 5448WAT      O16745   4.600   3.376   4.279  0.0679  0.3005  0.3659
 5448WAT     H116746   4.620   3.300   4.334 -1.3051  0.1392  0.6653
 5448WAT     H216747   4.544   3.431   4.333  0.7857  1.3964  0.0352
 5449WAT      O16748   5.431   5.203   2.925 -0.0648  0.0936  0.1646
 5449WAT     H116749   5.493   5.154   2.872 -2.0032  0.0310 -2.1718
 5449WAT     H216750   5.486   5.246   2.991  1.9878 -2.9964  0.6665
 5450WAT      O16751   7.018   5.183   3.453  0.7191 -0.0506 -0.0787
 5450WAT     H116752   7.002   5.089   3.442 -0.5307  0.2170 -0.7465
 5450WAT     H216753   6.994   5.201   3.544  0.8105 -0.3502  0.0052
 5451WAT      O16754   7.593   3.688   5.232  0.2510  0.2211  0.6568
 5451WAT     H116755   7.672   3.645   5.264 -0.4651  0.3652  2.8230
 5451WAT     H216756   7.571   3.751   5.301  0.3449  2.9608 -1.6285
 5452WAT      O16757   0.349   4.793   0.611  0.5323 -0.5322 -0.2605
 5452WAT     H116758   0.374   4.884   0.595  0.4213 -0.2509  1.1189
 5452WAT     H216759   0.268   4.798   0.662 -0.0107 -1.4224 -0.9863
 5453WAT      O16760   3.724   0.633   2.048  0.3423 -0.0764  0.6692
 5453WAT     H116761   3.712   0.557   2.104  1.7679  0.1014  1.2855
 5453WAT     H216762   3.799   0.679   2.087 -0.6356  1.7744  0.4673
 5454WAT      O16763   0.303   3.207   3.115 -0.3400 -0.3691  0.0348
 5454WAT     H116764   0.361   3.144   3.158 -0.0194 -0.1219 -0.0253
 5454WAT     H216765   0.337   3.293   3.142 -1.7860 -0.2020  1.4767
 5455WAT      O16766   1.694   7.151   2.987  0.3270  0.1554  0.2140
 5455WAT     H116767   1.773   7.098   2.996 -0.4999 -1.1301  0.0775
 5455WAT     H216768   1.677   7.184   3.076  1.2243  0.7898  0.1698
 5456WAT      O16769   5.477   4.225   0.269 -0.9247 -0.3265  0.4640
 5456WAT     H116770   5.518   4.236   0.355  0.6816  1.6174 -0.4748
 5456WAT     H216771   5.476   4.130   0.255  1.8731 -0.5638  1.2277
 5457WAT      O16772   5.736   1.207   3.946  0.4180 -0.2557 -0.0866
 5457WAT     H116773   5.802   1.141   3.924 -0.1446 -1.1336  0.7981
 5457WAT     H216774   5.778   1.291   3.926  1.1536 -0.8687 -1.2140
 5458WAT      O16775   4.789   2.825   3.151 -0.8891 -0.1053  0.3064
 5458WAT     H116776   4.762   2.909   3.115 -0.6638  0.0049  0.3907
 5458WAT     H216777   4.861   2.847   3.211 -0.7006 -0.3794  0.1800
 5459WAT      O16778   4.290   4.467   1.086 -0.3396  0.1281  0.0436
 5459WAT     H116779   4.225   4.453   1.154  0.9829 -2.4413  0.8973
 5459WAT     H216780   4.258   4.415   1.012 -0.5737  1.0158 -0.4936
 5460WAT      O16781   2.753   3.026   5.792 -0.3947 -0.1969  0.3716
 5460WAT     H116782   2.800   3.086   5.733 -2.1617  0.0012 -0.9317
 5460WAT     H216783   2.715   3.083   5.859  0.3717 -0.2398  0.8521
 5461WAT      O16784   1.556   6.588   1.302 -0.0447  0.3526 -0.0159
 5461WAT     H116785   1.642   6.629   1.308  0.2997 -0.5295  1.9813
 5461WAT     H216786   1.571   6.508   1.252  0.3147  0.2188  0.2973
 5462WAT      O16787   6.999   5.343   1.860  0.5715 -0.0496  0.1738
 5462WAT     H116788   6.987   5.352   1.954 -1.2154 -1.8199  0.1580
 5462WAT     H216789   7.073   5.283   1.851 -0.4322 -1.3642  0.4979
 5463WAT      O16790   6.227   5.667   5.874 -0.0403 -0.1949 -0.0424
 5463WAT     H116791   6.301   5.660   5.934 -1.0573  1.1129  1.4748
 5463WAT     H216792   6.258   5.724   5.804  0.8376 -0.8831 -0.2361
 5464WAT      O16793   0.639   7.078   0.603 -0.2252  0.0767 -0.3319
 5464WAT     H116794   0.593   7.120   0.676 -0.0069 -0.3820  0.0736
 5464WAT     H216795   0.728   7.111   0.609  0.2680 -1.3667  0.7413
 5465WAT      O16796   7.259   0.855   5.651 -0.1756  0.6460  0.3242
 5465WAT     H116797   7.321   0.918   5.688 -0.4592  0.3644  1.3162
 5465WAT     H216798   7.290   0.770   5.682 -0.2872  0.3738 -0.2980
 5466WAT      O16799   1.648   3.393   0.399 -0.1660  0.3642  0.5720
 5466WAT     H116800   1.593   3.325   0.436 -0.0257  0.8241  1.6562
 5466WAT     H216801   1.676   3.445   0.474  1.0756  0.6269 -0.0435
 5467WAT      O16802   5.017   0.626   1.709 -0.2390 -0.4316  0.4287
 5467WAT     H116803   5.036   0.719   1.722 -0.1725 -0.4526  0.4841
 5467WAT     H216804   4.933   0.612   1.753  0.4113 -0.6970  1.6031
 5468WAT      O16805   2.597   3.923   1.414  0.2763  0.1806  0.1224
 5468WAT     H116806   2.532   3.993   1.418  1.1522  1.0613 -0.3129
 5468WAT     H216807   2.622   3.908   1.505 -0.7120 -0.3534  0.3131
 5469WAT      O16808   1.890   0.783   1.206 -0.0914 -0.3229 -0.3339
 5469WAT     H116809   1.874   0.873   1.235  1.4267 -0.5960  1.5837
 5469WAT     H216810   1.905   0.791   1.111  0.2250  1.4971 -0.1723
 5470WAT      O16811   0.059   4.169   6.207  0.1032  0.1903 -0.4119
 5470WAT     H116812   0.041   4.263   6.199 -0.3993  0.1067 -0.2776
 5470WAT     H216813   0.103   4.161   6.291 -0.1135  0.2690 -0.2898
 5471WAT      O16814   5.199   6.465   1.637  0.1572 -0.2484 -0.2051
 5471WAT     H116815   5.234   6.393   1.585  0.3942 -0.5139  0.3050
 5471WAT     H216816   5.267   6.482   1.703 -0.8905 -1.1779  1.1768
 5472WAT      O16817   2.154   4.489   3.703  0.0005  0.4639  0.1401
 5472WAT     H116818   2.081   4.501   3.643  0.8351 -1.7881 -1.4528
 5472WAT     H216819   2.232   4.509   3.651  0.6315  1.0712  1.2805
 5473WAT      O16820   5.869   6.778   5.162  0.4756 -0.1453 -0.0481
 5473WAT     H116821   5.787   6.814   5.195  0.6487  0.1543  0.0561
 5473WAT     H216822   5.855   6.683   5.161 -0.4251 -0.0327 -1.4757
 5474WAT      O16823   7.310   5.124   2.937 -0.0977 -0.0520  0.0070
 5474WAT     H116824   7.250   5.184   2.981 -0.3875 -0.0603 -0.3687
 5474WAT     H216825   7.372   5.098   3.004 -0.8247 -0.4465  0.5407
 5475WAT      O16826   4.911   4.931   3.403  0.6298 -0.4315  0.4131
 5475WAT     H116827   4.864   4.955   3.483  0.8813  0.6199  0.2692
 5475WAT     H216828   4.957   5.011   3.378  3.6936 -1.7558  1.3401
 5476WAT      O16829   4.553   2.226   4.276 -0.6258  0.4185 -0.7048
 5476WAT     H116830   4.492   2.285   4.234 -0.5005  2.0097  1.1754
 5476WAT     H216831   4.634   2.277   4.285 -0.0619 -0.5159 -0.2619
 5477WAT      O16832   3.073   5.603   3.703 -0.5422 -0.3896  0.2380
 5477WAT     H116833   3.143   5.539   3.707 -1.8832 -1.9238  0.0734
 5477WAT     H216834   2.999   5.556   3.665 -0.8025  1.9739 -2.6033
 5478WAT      O16835   3.861   6.332   4.913  0.3871  0.2533 -0.1057
 5478WAT     H116836   3.859   6.287   4.997  0.0483  0.3037 -0.0854
 5478WAT     H216837   3.858   6.425   4.936 -0.0020  0.2616 -0.1808
 5479WAT      O16838   7.038   5.820   4.148 -0.2724  0.3085  0.1865
 5479WAT     H116839   7.046   5.733   4.185 -1.6326  0.0268 -0.1239
 5479WAT     H216840   6.971   5.811   4.080 -0.3793  1.5746  0.1002
 5480WAT      O16841   6.375   1.689   2.537  0.6076 -0.1295  0.4696
 5480WAT     H116842   6.387   1.600   2.570 -0.8802 -0.7850 -0.6109
 5480WAT     H216843   6.355   1.741   2.615  0.5787 -0.9357  1.0130
 5481WAT      O16844   0.761   6.847   1.832 -0.2000 -0.0290  0.1220
 5481WAT     H116845   0.707   6.916   1.873  0.2529  0.5264 -0.2103
 5481WAT     H216846   0.699   6.777   1.813 -0.7638  0.5037 -0.0276
 5482WAT      O16847   2.634   5.465   2.310  0.0196 -0.2631 -0.7024
 5482WAT     H116848   2.666   5.516   2.385 -0.3268  1.1732 -1.4851
 5482WAT     H216849   2.627   5.375   2.343  1.2957  0.0609  0.5401
 5483WAT      O16850   4.672   3.679   2.102  0.0531  0.3993 -0.2577
 5483WAT     H116851   4.753   3.680   2.153  0.1621  1.6736 -0.4294
 5483WAT     H216852   4.603   3.696   2.165  0.1516  1.6026 -0.4634
 5484WAT      O16853   4.170   6.623   0.527 -0.2076 -0.4736 -0.0317
 5484WAT     H116854   4.170   6.600   0.434 -1.3371  1.2258 -0.5158
 5484WAT     H216855   4.097   6.573   0.565 -0.0044 -0.8581 -0.1463
 5485WAT      O16856   2.971   7.062   5.551  0.1846 -0.7327  0.5023
 5485WAT     H116857   2.977   7.145   5.503 -0.3907  0.0810  1.7973
 5485WAT     H216858   3.059   7.024   5.542  0.2102 -0.4309 -0.8358
 5486WAT      O16859   4.310   7.092   2.005  0.1893  0.4290 -0.6138
 5486WAT     H116860   4.404   7.103   2.017  0.2138 -0.5936  0.3050
 5486WAT     H216861   4.269   7.160   2.058  0.3791 -1.5795  2.3781
 5487WAT      O16862   3.688   5.890   4.105  0.5025  0.5151  0.0035
 5487WAT     H116863   3.702   5.929   4.191  1.2996  1.8071 -0.6634
 5487WAT     H216864   3.626   5.949   4.062  2.6856  1.8757 -1.4854
 5488WAT      O16865   6.590   6.813   4.995 -0.0189 -0.3608  0.0545
 5488WAT     H116866   6.600   6.907   5.010 -0.4133 -0.3354  0.1586
 5488WAT     H216867   6.634   6.772   5.070  1.5654 -0.2931 -0.7855
 5489WAT      O16868   0.644   2.761   3.119 -0.2038  0.2910 -0.5569
 5489WAT     H116869   0.725   2.773   3.169 -1.3557  1.0047  1.2124
 5489WAT     H216870   0.641   2.836   3.060  0.5932  0.0567 -0.9157
 5490WAT      O16871   6.884   7.085   2.417 -0.1745 -0.4070  0.0759
 5490WAT     H116872   6.807   7.140   2.409 -0.4249 -0.6142  0.9849
 5490WAT     H216873   6.909   7.091   2.509  1.3412  0.2441 -0.3588
 5491WAT      O16874   4.144   6.744   4.907  0.1439 -0.5161 -0.3717
 5491WAT     H116875   4.172   6.657   4.879  1.0769 -0.5287  0.5545
 5491WAT     H216876   4.140   6.795   4.826  0.7940 -1.0904 -0.7795
 5492WAT      O16877   3.768   1.671   3.808 -0.1230 -0.3081 -0.4357
 5492WAT     H116878   3.714   1.678   3.729  0.0925  0.9587 -0.4957
 5492WAT     H216879   3.779   1.762   3.837  0.7642 -0.6683  0.4002
 5493WAT      O16880   4.114   4.425   0.073  0.1732 -0.0261  0.0215
 5493WAT     H116881   4.205   4.423   0.045 -0.0654 -1.5549 -0.7923
 5493WAT     H216882   4.117   4.430   0.168  1.2127 -3.2120  0.2634
 5494WAT      O16883   1.140   2.963   4.126 -0.2759 -0.3877  0.0011
 5494WAT     H116884   1.147   2.870   4.150  1.5477 -0.0368  1.0321
 5494WAT     H216885   1.109   3.006   4.206 -0.1318  0.0296 -0.1654
 5495WAT      O16886   6.154   1.072   3.404 -0.0996  0.0309  0.2156
 5495WAT     H116887   6.163   1.037   3.493  0.6495 -0.0724  0.1015
 5495WAT     H216888   6.146   1.167   3.417  1.0070  0.1149  0.3400
 5496WAT      O16889   3.154   0.818   0.340 -0.0385 -0.4915 -0.4052
 5496WAT     H116890   3.103   0.869   0.403  1.1411  0.4914 -0.2270
 5496WAT     H216891   3.108   0.734   0.336 -0.1438 -0.6101  1.7992
 5497WAT      O16892   0.304   1.218   4.601 -0.0179 -0.7041  0.5097
 5497WAT     H116893   0.386   1.236   4.648  0.7536 -1.2848 -0.5750
 5497WAT     H216894   0.253   1.164   4.661  0.3646 -0.2882  1.2238
 5498WAT      O16895   4.445   2.629   5.119 -0.0828  0.3251 -0.9908
 5498WAT     H116896   4.383   2.565   5.155 -0.1350  0.1575 -1.3749
 5498WAT     H216897   4.411   2.714   5.147  1.8013  0.1160  2.4920
 5499WAT      O16898   7.439   0.001   0.559 -0.4511 -0.4963  0.2289
 5499WAT     H116899   7.418  -0.004   0.653 -0.8462  0.0162  0.1706
 5499WAT     H216900   7.505   0.070   0.553 -0.1565 -0.7823  0.1742
 5500WAT      O16901   7.431   2.797   0.364 -0.0281 -0.2482 -0.4838
 5500WAT     H116902   7.490   2.871   0.371 -0.3549  0.1733 -1.8685
 5500WAT     H216903   7.486   2.724   0.335  0.1949 -0.4289  0.3658
 5501WAT      O16904   3.970   2.466   2.590 -0.3737  0.6352 -0.1906
 5501WAT     H116905   3.897   2.439   2.535  1.4913 -0.3922 -2.3484
 5501WAT     H216906   4.021   2.526   2.535 -0.1564  2.2587  1.6729
 5502WAT      O16907   4.612   5.050   0.180 -0.1135  0.6812 -0.9079
 5502WAT     H116908   4.548   5.060   0.251  0.6393  0.8974 -0.2452
 5502WAT     H216909   4.697   5.056   0.223  0.3810  2.0025 -1.9830
 5503WAT      O16910   3.935   5.294   4.362  0.3514  0.0418 -0.1620
 5503WAT     H116911   3.984   5.269   4.441 -2.1884 -0.0992  1.4897
 5503WAT     H216912   3.871   5.224   4.351 -0.5959  1.0412 -1.2208
 5504WAT      O16913   4.176   5.023   2.773 -0.4315 -0.6054 -0.3251
 5504WAT     H116914   4.179   4.938   2.729  0.4289 -0.1958 -1.0785
 5504WAT     H216915   4.244   5.016   2.841  2.1944  0.6427 -2.6223
 5505WAT      O16916   5.276   6.401   0.900  0.9939 -0.1040  0.5187
 5505WAT     H116917   5.226   6.482   0.891  0.2592 -0.5553  0.4825
 5505WAT     H216918   5.217   6.332   0.869  1.5706 -0.6716  0.6475
 5506WAT      O16919   4.226   0.497   3.877  0.1900  0.5940 -0.0483
 5506WAT     H116920   4.221   0.406   3.904 -1.5153  0.5249 -0.4921
 5506WAT     H216921   4.318   0.521   3.889  1.0993 -1.7412 -1.7370
 5507WAT      O16922   2.312   5.544   0.067  0.6097 -0.3248 -0.4233
 5507WAT     H116923   2.318   5.483   0.141  3.3192  0.6662  0.2763
 5507WAT     H216924   2.225   5.528   0.030 -0.0456 -2.2747  1.7296
 5508WAT      O16925   0.752   0.581   3.213  0.4759 -0.5010  0.7489
 5508WAT     H116926   0.677   0.639   3.200  0.2195 -1.1013 -0.7201
 5508WAT     H216927   0.726   0.499   3.171  0.9419 -1.6131  2.5114
 5509WAT      O16928   2.449   1.375   2.307  0.7192  0.1310 -0.2073
 5509WAT     H116929   2.424   1.336   2.390  0.9111  1.4150  0.4724
 5509WAT     H216930   2.516   1.316   2.272  0.2805 -0.6775  0.3132
 5510WAT      O16931   5.787   4.861   3.468  0.4196 -0.0926  0.1823
 5510WAT     H116932   5.859   4.896   3.416 -0.3204 -0.2696 -1.0086
 5510WAT     H216933   5.828   4.829   3.548  1.4245  1.3903  0.3120
 5511WAT      O16934   5.743   2.290   4.942 -0.0671 -0.0383  0.3991
 5511WAT     H116935   5.739   2.297   5.037  3.0455  1.3028  0.5358
 5511WAT     H216936   5.751   2.380   4.912  0.4764 -0.5319 -1.0082
 5512WAT      O16937   1.481   1.924   1.018  0.1677  0.1570 -0.1827
 5512WAT     H116938   1.538   1.996   1.044  4.0106 -2.2114 -1.2233
 5512WAT     H216939   1.426   1.908   1.095  1.3251  2.2034  1.1759
 5513WAT      O16940   0.166   6.945   3.399 -0.6138  0.2338 -0.1047
 5513WAT     H116941   0.096   6.883   3.419 -0.0573 -0.8716 -1.4423
 5513WAT     H216942   0.190   6.983   3.484  1.0362 -3.5344  1.2930
 5514WAT      O16943   7.657   6.406   4.855 -0.8998  0.2750 -0.6275
 5514WAT     H116944   7.631   6.427   4.945 -0.0940  1.2512 -0.6062
 5514WAT     H216945   7.583   6.434   4.802 -2.1238 -1.8496 -0.1865
 5515WAT      O16946   6.304   0.623   1.386 -0.0025 -0.1192 -0.4878
 5515WAT     H116947   6.212   0.651   1.386  0.0597  0.0856 -0.3216
 5515WAT     H216948   6.336   0.645   1.474 -0.6717 -3.0852  0.6318
 5516WAT      O16949   3.320   5.088   3.746  0.0565  0.2527 -0.5766
 5516WAT     H116950   3.338   5.023   3.678  0.4253  0.2749 -0.5032
 5516WAT     H216951   3.334   5.041   3.828  0.9286  0.5840 -0.5247
 5517WAT      O16952   2.490   2.299   2.502  0.4953  0.4450  0.1446
 5517WAT     H116953   2.563   2.240   2.484 -2.4375 -3.2117 -0.8400
 5517WAT     H216954   2.457   2.272   2.587 -0.4684  1.2037  0.0314
 5518WAT      O16955   3.793   1.176   2.911  0.0046  0.2171 -0.1944
 5518WAT     H116956   3.764   1.267   2.917 -0.5611  0.1178 -1.2559
 5518WAT     H216957   3.796   1.147   3.002 -0.8105  0.9934  0.1064
 5519WAT      O16958   4.996   4.587   3.183  0.2315 -0.5576 -0.7455
 5519WAT     H116959   4.947   4.544   3.112 -1.2586 -0.4043  0.1336
 5519WAT     H216960   5.054   4.519   3.216 -0.6095 -1.3022 -0.7383
 5520WAT      O16961   0.774   4.662   0.540  0.1328 -0.1333 -0.4908
 5520WAT     H116962   0.750   4.755   0.545  1.7558  0.2789  0.0727
 5520WAT     H216963   0.857   4.656   0.588 -0.5621 -2.0957  0.5941
 5521WAT      O16964   7.488   3.829   0.610  0.7037 -0.3646 -0.2129
 5521WAT     H116965   7.458   3.818   0.701  0.4863  2.0187  0.0478
 5521WAT     H216966   7.468   3.920   0.589  0.0268 -1.0525 -2.9420
 5522WAT      O16967   7.172   5.591   5.026 -0.1248 -0.1477  0.5973
 5522WAT     H116968   7.081   5.618   5.036 -0.8288 -1.3447 -1.6895
 5522WAT     H216969   7.167   5.496   5.010  1.7165 -0.6209  2.4646
 5523WAT      O16970   4.265   5.974   5.721 -0.2221 -0.0075 -0.0909
 5523WAT     H116971   4.266   5.879   5.733 -0.0852 -0.0833 -0.6673
 5523WAT     H216972   4.247   6.010   5.808 -0.4642 -0.5674  0.0898
 5524WAT      O16973   6.029   5.309   5.289  0.4423  0.2939 -0.4813
 5524WAT     H116974   5.982   5.346   5.363  1.0045  1.0782 -0.5045
 5524WAT     H216975   6.064   5.226   5.322 -0.5838 -0.0880 -0.3428
 5525WAT      O16976   0.172   2.039   3.351 -0.0477  0.4643 -0.0410
 5525WAT     H116977   0.169   1.952   3.390 -0.9406 -0.5263 -2.1559
 5525WAT     H216978   0.138   2.097   3.419 -1.0895 -1.0963  0.8204
 5526WAT      O16979   0.028   3.806   4.273 -0.9526  0.0410  0.5382
 5526WAT     H116980   0.050   3.838   4.361  0.0541  0.4845  0.1352
 5526WAT     H216981  -0.018   3.880   4.233 -1.3022 -0.1172  0.6424
 5527WAT      O16982   2.588   6.854   5.951  0.2960  0.5359 -0.5348
 5527WAT     H116983   2.548   6.816   5.873  1.1615 -1.5684 -0.0125
 5527WAT     H216984   2.666   6.800   5.968 -1.5871 -1.3287  3.6546
 5528WAT      O16985   5.522   4.586   3.923 -0.3497 -0.3249  0.0211
 5528WAT     H116986   5.470   4.580   4.004  1.4660 -1.5604  1.1768
 5528WAT     H216987   5.551   4.677   3.920 -1.2883 -0.0060  0.1694
 5529WAT      O16988   1.893   4.819   5.125 -0.2410 -1.0672  0.1667
 5529WAT     H116989   1.931   4.806   5.039 -0.2773 -0.9863  0.1380
 5529WAT     H216990   1.934   4.753   5.180 -0.6967 -1.5433 -0.0576
 5530WAT      O16991   4.651   1.413   4.360  0.0040 -0.3778 -0.2272
 5530WAT     H116992   4.558   1.432   4.344  0.1006 -0.3203 -0.7444
 5530WAT     H216993   4.694   1.498   4.349  0.2209 -0.5631 -0.8020
 5531WAT      O16994   2.317   1.545   0.726  0.2144 -0.1842  0.1399
 5531WAT     H116995   2.303   1.511   0.638  0.5426  1.5451 -0.6271
 5531WAT     H216996   2.249   1.503   0.779 -1.2486  0.1953 -1.3451
 5532WAT      O16997   1.691   1.115   0.198  0.2329 -0.3042 -0.5923
 5532WAT     H116998   1.603   1.087   0.226  0.2464 -0.8920 -1.1122
 5532WAT     H216999   1.731   1.035   0.165  0.7886  0.0704 -0.8216
 5533WAT      O17000   2.285   5.174   2.450 -0.0723  0.0922 -0.2149
 5533WAT     H117001   2.280   5.106   2.517 -0.4619  0.8117  0.5046
 5533WAT     H217002   2.230   5.141   2.379  0.2564 -0.6335 -0.1389
 5534WAT      O17003   1.953   5.494   0.797  0.2504 -0.0342 -0.5223
 5534WAT     H117004   1.927   5.413   0.842  2.0422 -0.6636 -0.5438
 5534WAT     H217005   2.013   5.464   0.728 -0.6561  1.1366 -1.8755
 5535WAT      O17006   0.434   4.258   3.034 -0.5345 -0.3610 -0.0843
 5535WAT     H117007   0.485   4.209   3.099 -0.0153  0.8974  0.4887
 5535WAT     H217008   0.494   4.270   2.961 -0.2238  0.4786  0.2900
 5536WAT      O17009   6.446   1.015   4.280  0.3417  0.2494  0.0630
 5536WAT     H117010   6.445   1.109   4.264  0.5929 -0.0224 -1.7174
 5536WAT     H217011   6.531   0.998   4.320 -0.1498  0.8964  1.4760
 5537WAT      O17012   7.450   4.658   2.832  0.3934  0.3060  0.2054
 5537WAT     H117013   7.479   4.581   2.882  2.6629  0.8108 -0.2429
 5537WAT     H217014   7.391   4.704   2.892 -0.9171 -1.6785  0.5335
 5538WAT      O17015   0.591   4.079   3.831 -0.0826  0.0218 -0.8562
 5538WAT     H117016   0.649   4.028   3.888 -0.8761 -1.1379 -1.0649
 5538WAT     H217017   0.651   4.129   3.775  0.7300  1.2415  0.9799
 5539WAT      O17018   2.386   5.593   6.201 -0.1027 -0.4871  0.6518
 5539WAT     H117019   2.311   5.612   6.144 -0.8390 -2.5401  0.8380
 5539WAT     H217020   2.452   5.657   6.175 -1.3655  0.3716 -0.6291
 5540WAT      O17021   1.036   5.914   4.076  0.4510  0.1220 -0.1557
 5540WAT     H117022   0.986   5.990   4.106 -1.0255 -1.3795  1.3813
 5540WAT     H217023   1.003   5.897   3.988 -0.8186 -0.0226  0.3258
 5541WAT      O17024   0.925   2.083   4.667 -0.3691  0.5565 -0.1916
 5541WAT     H117025   0.923   1.998   4.711 -1.5539  0.5700 -0.2069
 5541WAT     H217026   0.837   2.094   4.631  0.0866  1.2995 -1.1329
 5542WAT      O17027   2.759   6.228   5.170 -0.3996  0.4132  0.4062
 5542WAT     H117028   2.848   6.213   5.200  0.0682  0.6126 -0.8101
 5542WAT     H217029   2.766   6.301   5.109 -1.7914  2.1232  2.1551
 5543WAT      O17030   6.402   2.414   5.034  0.2460 -0.2161  0.0669
 5543WAT     H117031   6.338   2.343   5.037  1.0378 -0.9526  2.5222
 5543WAT     H217032   6.448   2.401   4.951 -0.4804 -1.7970 -0.1366
 5544WAT      O17033   7.210   1.738   2.364  0.9222  0.4884  0.5281
 5544WAT     H117034   7.278   1.803   2.345  1.9865 -0.7208  0.0493
 5544WAT     H217035   7.217   1.723   2.458 -0.8064  2.6276  1.0572
 5545WAT      O17036   7.325   2.927   5.893  0.2738 -0.2547  0.3174
 5545WAT     H117037   7.249   2.933   5.951  0.1895 -0.0608  0.1903
 5545WAT     H217038   7.310   2.847   5.842 -1.0888  1.0089 -1.4227
 5546WAT      O17039   4.414   3.127   0.035  0.1056  0.1753 -0.1634
 5546WAT     H117040   4.332   3.119   0.085 -0.2355 -0.4570 -0.8076
 5546WAT     H217041   4.483   3.115   0.100 -0.2968  0.9412  0.4296
 5547WAT      O17042   0.414   5.028   3.537  0.3415 -0.2034 -0.1762
 5547WAT     H117043   0.391   5.086   3.608  0.5962  1.4670 -1.4009
 5547WAT     H217044   0.444   4.947   3.580  0.4737  0.7416  1.5781
 5548WAT      O17045   1.537   5.846   0.868 -0.3483  0.1837 -0.1716
 5548WAT     H117046   1.470   5.854   0.936  0.1090  0.3209  0.2707
 5548WAT     H217047   1.549   5.935   0.835 -0.4758  0.1382 -0.3426
 5549WAT      O17048   4.261   3.264   2.262  0.2778  0.0975  0.1562
 5549WAT     H117049   4.181   3.314   2.275  0.8190  0.7096  1.3299
 5549WAT     H217050   4.247   3.215   2.181 -0.5144  1.6680 -0.6815
 5550WAT      O17051   3.895   2.209   0.758 -0.4901 -0.1169 -0.5531
 5550WAT     H117052   3.940   2.293   0.768  0.3814 -0.6653  0.3611
 5550WAT     H217053   3.825   2.212   0.823 -0.2078 -0.2405 -0.2358
 5551WAT      O17054   6.821   5.715   0.612 -0.4470 -0.2322 -0.4442
 5551WAT     H117055   6.739   5.729   0.659  1.5530 -0.1887  3.4975
 5551WAT     H217056   6.840   5.800   0.572 -0.6346  0.8939  1.7115
 5552WAT      O17057   4.946   4.492   1.111  0.0757  0.0789  0.3753
 5552WAT     H117058   5.017   4.494   1.175 -1.8736  1.3846  2.6570
 5552WAT     H217059   4.884   4.558   1.141 -2.5686 -1.6017 -0.9670
 5553WAT      O17060   2.563   2.174   0.230  0.2780 -0.0299 -0.1979
 5553WAT     H117061   2.496   2.105   0.229 -0.4154  0.6281 -0.3956
 5553WAT     H217062   2.519   2.250   0.191  1.2108  0.3587 -0.5088
 5554WAT      O17063   0.351   5.450   1.343  0.8608 -0.0562 -0.2021
 5554WAT     H117064   0.352   5.358   1.368  0.5530 -0.0900 -0.3012
 5554WAT     H217065   0.335   5.497   1.424  2.4085  0.0109  0.0922
 5555WAT      O17066   2.671   5.243   0.463  0.2689  0.2072 -0.4788
 5555WAT     H117067   2.668   5.308   0.532 -1.2325  1.0556 -1.2973
 5555WAT     H217068   2.661   5.293   0.382  1.7188 -0.7880 -1.3145
 5556WAT      O17069   1.529   5.797   5.961  0.3077  0.2648 -0.4211
 5556WAT     H117070   1.620   5.814   5.937 -0.4742  2.4307 -2.3012
 5556WAT     H217071   1.485   5.780   5.878 -1.0699 -0.4063  0.4114
 5557WAT      O17072   4.999   2.287   5.287  0.5593  0.0165  0.3021
 5557WAT     H117073   4.912   2.267   5.253  1.0929  0.4989 -1.4057
 5557WAT     H217074   4.985   2.301   5.381 -1.1210 -0.3259  0.1294
 5558WAT      O17075   2.653   5.606   1.768  0.1166  0.3304  0.2080
 5558WAT     H117076   2.742   5.573   1.773  0.1336  0.4240  0.5142
 5558WAT     H217077   2.603   5.552   1.829 -0.5183 -1.2573 -1.6012
 5559WAT      O17078   6.302   3.758   5.501  0.2370 -0.6516  0.3661
 5559WAT     H117079   6.379   3.708   5.473 -0.1267 -0.8896 -0.2148
 5559WAT     H217080   6.297   3.742   5.596  0.4958 -1.1910  0.2932
 5560WAT      O17081   4.688   1.511   0.256 -0.5372  0.5647  0.1775
 5560WAT     H117082   4.672   1.418   0.241 -0.6226  0.6758 -0.4600
 5560WAT     H217083   4.739   1.514   0.337  0.9362 -0.1580 -0.6924
 5561WAT      O17084   2.330   6.808   6.092 -0.5476  0.3318  0.3534
 5561WAT     H117085   2.305   6.859   6.169 -0.4532  2.3370 -0.8788
 5561WAT     H217086   2.426   6.801   6.099 -0.5289  0.5872  0.3790
 5562WAT      O17087   7.125   2.369   2.793 -0.3458 -0.2939 -0.4753
 5562WAT     H117088   7.032   2.347   2.802  0.0050 -1.7191 -0.1188
 5562WAT     H217089   7.166   2.289   2.760  0.8609  0.1109 -0.0106
 5563WAT      O17090   1.996   7.005   4.665  0.2526 -0.3463  0.3373
 5563WAT     H117091   1.976   7.077   4.724 -0.8510 -1.1631  0.9781
 5563WAT     H217092   2.057   6.949   4.714 -1.5785 -1.6600  1.2546
 5564WAT      O17093   5.411   5.536   3.664  0.0831 -0.3447 -0.5091
 5564WAT     H117094   5.473   5.550   3.736  1.5339 -2.9540 -1.1520
 5564WAT     H217095   5.327   5.564   3.700  1.0166 -0.1288  1.6699
 5565WAT      O17096   1.370   4.376   0.293 -0.0869  0.1307 -0.5406
 5565WAT     H117097   1.310   4.311   0.256 -2.0385  2.1514 -1.1236
 5565WAT     H217098   1.446   4.325   0.320 -1.8593 -2.5196 -0.1625
 5566WAT      O17099   5.740   0.030   0.069 -0.2440  0.0211  0.3128
 5566WAT     H117100   5.656  -0.000   0.035 -0.4956  1.3085 -0.2962
 5566WAT     H217101   5.742  -0.002   0.159 -0.2802 -2.1071 -0.3825
 5567WAT      O17102   6.421   0.109   3.073  0.2835  0.7743  0.0612
 5567WAT     H117103   6.328   0.130   3.064  0.4968  1.7066  0.0018
 5567WAT     H217104   6.422   0.016   3.095 -0.5831  0.3013 -1.7370
 5568WAT      O17105   4.421   5.977   0.946 -0.1875 -0.0527  0.5503
 5568WAT     H117106   4.421   5.926   0.865 -2.3264 -1.2916  1.2506
 5568WAT     H217107   4.470   5.924   1.009  1.5526  0.9496  0.1178
 5569WAT      O17108   6.819   0.437   2.607 -0.2282  0.2094  0.1268
 5569WAT     H117109   6.901   0.417   2.561  0.0303  0.0601  0.6496
 5569WAT     H217110   6.847   0.463   2.695 -0.7655 -0.1855  0.4164
 5570WAT      O17111   5.842   5.795   5.987  0.3745  0.4481 -0.0671
 5570WAT     H117112   5.926   5.839   5.997  0.8053 -0.4674  0.5493
 5570WAT     H217113   5.817   5.811   5.896  1.1341  0.8749 -0.2105
 5571WAT      O17114   4.851   3.340   4.091 -0.2803  0.4541 -0.4207
 5571WAT     H117115   4.852   3.299   4.004  0.1894 -1.2376  0.3388
 5571WAT     H217116   4.760   3.368   4.103  0.1539  3.1829 -2.4922
 5572WAT      O17117   5.861   6.162   6.124  0.1414 -0.1070 -0.0166
 5572WAT     H117118   5.823   6.123   6.045  0.8971  1.7314 -1.3672
 5572WAT     H217119   5.926   6.099   6.154 -0.4816 -1.0419 -0.5928
 5573WAT      O17120   3.605   2.156   5.053 -0.4137  0.5696 -0.2015
 5573WAT     H117121   3.676   2.221   5.056  1.5322 -1.2233 -2.6806
 5573WAT     H217122   3.613   2.108   5.136 -0.1098  1.7480  0.4700
 5574WAT      O17123   1.406   0.587   0.336  0.6086 -0.3487  0.0210
 5574WAT     H117124   1.470   0.594   0.407  0.8935 -0.1642 -0.2473
 5574WAT     H217125   1.363   0.672   0.334 -0.9597 -1.0677  1.4038
 5575WAT      O17126   3.014   3.358   0.481  0.5973 -0.6018  0.6509
 5575WAT     H117127   3.091   3.327   0.529 -0.0651 -0.5096  1.8144
 5575WAT     H217128   2.953   3.285   0.483  0.3871 -0.4384  0.3317
 5576WAT      O17129   3.345   7.149   4.838  0.0512 -0.4422 -0.0335
 5576WAT     H117130   3.295   7.215   4.791  0.0190 -0.3181  0.1739
 5576WAT     H217131   3.371   7.192   4.920 -0.4621 -0.8711  0.3626
 5577WAT      O17132   2.044   6.740   0.920 -0.5686 -1.1033  0.2672
 5577WAT     H117133   2.052   6.827   0.882 -1.0172 -0.8707  0.6873
 5577WAT     H217134   1.956   6.710   0.895 -0.1992 -1.6796 -0.3702
 5578WAT      O17135   5.120   5.426   5.196 -0.3752 -0.3650 -0.0418
 5578WAT     H117136   5.149   5.402   5.284 -0.5600  0.0964  0.1456
 5578WAT     H217137   5.029   5.454   5.207  0.2655  1.9026  0.0135
 5579WAT      O17138   1.851   4.325   3.973  0.0047  0.1697 -0.4051
 5579WAT     H117139   1.856   4.298   4.065 -4.2720 -1.7333 -0.5173
 5579WAT     H217140   1.938   4.303   3.938  0.7783 -2.0415  2.4531
 5580WAT      O17141   3.494   0.710   5.150  0.3429  0.0557  0.1202
 5580WAT     H117142   3.547   0.647   5.101  1.2007 -0.0221  1.1058
 5580WAT     H217143   3.487   0.786   5.093 -0.5933 -0.8522 -1.0390
 5581WAT      O17144   5.642   6.305   3.394  0.5213 -0.6556 -0.6912
 5581WAT     H117145   5.583   6.321   3.467  0.5126  0.4611 -0.9299
 5581WAT     H217146   5.719   6.265   3.434  1.2328  1.4963  0.2232
 5582WAT      O17147   6.034   2.157   3.313 -0.3299  0.1475 -0.2368
 5582WAT     H117148   5.993   2.086   3.264  1.4906 -1.0574 -0.1248
 5582WAT     H217149   6.004   2.145   3.403 -1.2366  0.4646 -0.4927
 5583WAT      O17150   4.297   3.426   2.460 -0.3428  0.5627 -0.1024
 5583WAT     H117151   4.285   3.365   2.388  2.3357 -0.3370  0.1090
 5583WAT     H217152   4.210   3.431   2.501 -1.2268 -1.2075 -1.5796
 5584WAT      O17153   0.324   6.873   1.103  0.1857  0.1452  0.0315
 5584WAT     H117154   0.291   6.936   1.167 -2.5791 -0.8074 -0.3362
 5584WAT     H217155   0.290   6.789   1.132 -0.6739 -0.4039 -2.3371
 5585WAT      O17156   5.954   5.368   3.329 -0.1400  1.2653  0.0155
 5585WAT     H117157   5.879   5.410   3.370  0.6140  0.9526  1.8536
 5585WAT     H217158   6.011   5.344   3.403  0.0920 -1.7583 -0.9815
 5586WAT      O17159   5.241   4.803   5.286 -0.5240 -0.3498 -0.7318
 5586WAT     H117160   5.293   4.769   5.359 -1.4288  0.3631  0.2897
 5586WAT     H217161   5.302   4.856   5.235  0.3458 -1.6317 -1.0546
 5587WAT      O17162   1.858   0.733   5.628 -0.3240  0.3563 -0.4121
 5587WAT     H117163   1.817   0.675   5.564 -0.7966  1.9299 -1.6111
 5587WAT     H217164   1.948   0.742   5.598 -0.0583 -0.2946  0.1752
 5588WAT      O17165   0.411   2.034   5.142  0.8301  0.4400  0.6076
 5588WAT     H117166   0.411   2.113   5.089  2.8219  0.0142 -0.1180
 5588WAT     H217167   0.497   1.995   5.127  0.0719 -1.6315  1.2965
 5589WAT      O17168   0.151   6.445   1.395  0.4182  0.1839  0.2654
 5589WAT     H117169   0.096   6.382   1.348  2.2680  0.1088 -1.9346
 5589WAT     H217170   0.193   6.393   1.463  0.1619 -0.4514 -0.0509
 5590WAT      O17171   0.712   2.370   1.516 -0.2824  0.1267  0.1565
 5590WAT     H117172   0.749   2.455   1.494  1.5782 -0.9806 -1.3350
 5590WAT     H217173   0.710   2.369   1.612 -0.1754  1.7669  0.1959
 5591WAT      O17174   3.511   4.775   3.715 -0.5095 -0.2576  0.2456
 5591WAT     H117175   3.466   4.764   3.799 -0.2450 -1.8514  0.2208
 5591WAT     H217176   3.586   4.715   3.721  0.2620  0.5782 -0.6371
 5592WAT      O17177   2.390   4.132   1.378 -0.7362 -0.0006 -0.0857
 5592WAT     H117178   2.333   4.180   1.437 -1.0818  0.9826 -1.1699
 5592WAT     H217179   2.408   4.193   1.307  1.0335 -0.5589 -0.1773
 5593WAT      O17180   6.406   2.893   4.978  0.1797 -0.1534 -0.6275
 5593WAT     H117181   6.394   2.913   5.071 -0.3458 -1.2777 -0.4335
 5593WAT     H217182   6.399   2.797   4.973 -0.4447 -0.0647 -1.9165
 5594WAT      O17183   2.295   3.912   0.488 -0.1572 -0.4041  0.4369
 5594WAT     H117184   2.328   3.957   0.566 -1.4373  1.0771  0.1661
 5594WAT     H217185   2.202   3.900   0.506 -0.0172 -2.1980  0.1124
 5595WAT      O17186   3.372   5.100   0.822  0.0341 -0.0907  0.0490
 5595WAT     H117187   3.303   5.162   0.798  0.8671  0.5907 -0.6750
 5595WAT     H217188   3.407   5.070   0.738 -0.3046 -1.5049  0.3923
 5596WAT      O17189   5.499   0.354   0.405  0.8815  0.2347 -0.2666
 5596WAT     H117190   5.536   0.305   0.331  0.8636 -0.2134  0.0140
 5596WAT     H217191   5.477   0.439   0.369  1.9559  0.4280 -0.5031
 5597WAT      O17192   6.469   5.514   4.423  0.3276 -0.3443 -0.1893
 5597WAT     H117193   6.532   5.572   4.380  0.1428 -1.3519 -1.9395
 5597WAT     H217194   6.523   5.447   4.466  0.4952 -0.7817 -1.0573
 5598WAT      O17195   1.625   6.412   6.186  0.1466  0.0737 -0.7561
 5598WAT     H117196   1.606   6.486   6.128 -0.8105  0.7400  0.3530
 5598WAT     H217197   1.543   6.398   6.234  0.5513 -1.2257 -0.4067
 5599WAT      O17198   2.622   0.218   5.538  0.3552  0.0174 -0.3057
 5599WAT     H117199   2.560   0.289   5.553  2.2059  1.6679 -0.1191
 5599WAT     H217200   2.609   0.159   5.613  2.0952  2.6847  2.2927
 5600WAT      O17201   1.202   6.494   1.968  0.2214 -0.2789 -0.4283
 5600WAT     H117202   1.252   6.499   2.049 -1.9363 -4.0101  1.3894
 5600WAT     H217203   1.121   6.542   1.987  0.3468  0.1883 -1.0233
 5601WAT      O17204   7.639   0.516   4.981 -0.0725  0.2295  0.2591
 5601WAT     H117205   7.655   0.525   5.075 -0.1067 -0.3137  0.3214
 5601WAT     H217206   7.622   0.423   4.969  1.8708 -0.0758 -0.5708
 5602WAT      O17207   2.926   4.744   5.910  0.1621  0.0717  0.2098
 5602WAT     H117208   2.983   4.773   5.982 -0.6040  1.2460  0.3741
 5602WAT     H217209   2.921   4.819   5.852 -2.3702  0.5690  0.9411
 5603WAT      O17210   0.239   2.201   2.613 -0.1998 -0.1316 -0.4130
 5603WAT     H117211   0.161   2.243   2.650 -0.6792 -0.9644 -0.4527
 5603WAT     H217212   0.205   2.142   2.546  0.6270  0.9647 -1.8264
 5604WAT      O17213   0.062   5.631   1.480 -0.6057 -0.0553 -0.3470
 5604WAT     H117214  -0.018   5.639   1.533 -2.1581 -0.4414 -2.4893
 5604WAT     H217215   0.095   5.544   1.502 -2.2966 -1.0023 -1.3281
 5605WAT      O17216   2.044   1.077   2.605  0.2238  0.2748 -0.0149
 5605WAT     H117217   1.997   1.042   2.680  0.4151  0.4982  0.2124
 5605WAT     H217218   2.037   1.009   2.538 -1.1211  0.6472 -0.2710
 5606WAT      O17219   0.561   4.487   0.488  0.2262  0.2096  0.1301
 5606WAT     H117220   0.480   4.531   0.461  0.5354  0.9313  0.3542
 5606WAT     H217221   0.620   4.559   0.510  0.9897 -0.3129 -0.1987
 5607WAT      O17222   6.410   0.825   4.825 -0.3374  0.1789  0.6605
 5607WAT     H117223   6.337   0.851   4.883  0.4010  0.2488  1.5899
 5607WAT     H217224   6.451   0.752   4.871  0.9719  0.9862  0.8002
 5608WAT      O17225   3.039   7.135   0.973 -0.3402  0.8501  0.0254
 5608WAT     H117226   2.966   7.118   0.912 -0.3799 -0.9743  0.5175
 5608WAT     H217227   3.020   7.080   1.049  1.4455  0.4856  0.2501
 5609WAT      O17228   7.527   4.608   6.030 -0.2107  0.3135 -0.5809
 5609WAT     H117229   7.585   4.533   6.042 -0.8025 -0.0606 -0.0637
 5609WAT     H217230   7.508   4.638   6.119 -0.9013  0.3726 -0.7493
 5610WAT      O17231   0.182   3.357   2.062  0.0959 -0.3777  0.3903
 5610WAT     H117232   0.159   3.436   2.111  1.3494  0.1259  0.2233
 5610WAT     H217233   0.112   3.295   2.081 -0.4509  0.4741  1.2383
 5611WAT      O17234   7.398   5.113   3.425 -0.1895  0.2764  0.1622
 5611WAT     H117235   7.423   5.051   3.493 -2.0118  0.1534  0.7906
 5611WAT     H217236   7.323   5.159   3.462 -0.1785  1.3790 -1.1268
 5612WAT      O17237   5.523   0.791   1.526 -0.4751 -0.0830  0.6478
 5612WAT     H117238   5.430   0.811   1.543 -0.3049 -0.4355  2.1610
 5612WAT     H217239   5.571   0.850   1.584  0.1669 -1.3768  1.4825
 5613WAT      O17240   4.474   6.727   4.019  0.4842  0.2339  0.0142
 5613WAT     H117241   4.455   6.740   4.112  0.9179 -0.1682  0.1643
 5613WAT     H217242   4.440   6.806   3.976  1.1380  0.8665  0.6348
 5614WAT      O17243   0.324   5.224   0.165  0.5803 -0.4557 -0.1506
 5614WAT     H117244   0.319   5.280   0.242  1.8040 -0.8153  0.2203
 5614WAT     H217245   0.297   5.137   0.196 -1.5058 -0.0820 -0.7670
 5615WAT      O17246   3.129   2.574   3.215  0.3180 -0.5539 -0.6137
 5615WAT     H117247   3.188   2.611   3.281 -0.2587  0.2527 -0.5421
 5615WAT     H217248   3.045   2.563   3.259  0.3575 -1.5713 -0.7571
 5616WAT      O17249   3.087   4.598   5.714 -0.1079 -0.3140 -0.7213
 5616WAT     H117250   3.082   4.691   5.736 -0.7518 -0.7425  1.0207
 5616WAT     H217251   3.123   4.556   5.792  0.2924 -1.5382 -1.5231
 5617WAT      O17252   2.103   2.851   4.789  0.6636  0.1500  0.0404
 5617WAT     H117253   2.012   2.842   4.818  0.4035  0.9326 -0.5151
 5617WAT     H217254   2.133   2.933   4.827  1.2343 -0.2391  0.4489
 5618WAT      O17255   5.873   4.051   2.994 -0.6583  0.2244 -0.4560
 5618WAT     H117256   5.937   4.100   3.045 -0.4635  0.7980 -1.2309
 5618WAT     H217257   5.810   4.116   2.965 -2.4704 -0.5325  1.4977
 5619WAT      O17258   2.374   3.865   1.194 -0.3518  0.1738  0.1555
 5619WAT     H117259   2.282   3.890   1.188 -0.1782  0.5192 -1.2957
 5619WAT     H217260   2.413   3.931   1.252 -0.0550  3.0444 -3.0177
 5620WAT      O17261   3.448   3.134   3.665  0.0868 -0.2380  0.1298
 5620WAT     H117262   3.541   3.122   3.642  0.0550 -1.7951  0.6660
 5620WAT     H217263   3.449   3.149   3.760 -0.0731  2.1348 -0.1905
 5621WAT      O17264   0.340   0.585   3.353 -0.9474  0.1274 -0.5335
 5621WAT     H117265   0.282   0.607   3.425 -1.4839 -0.2637 -0.8418
 5621WAT     H217266   0.412   0.537   3.394 -0.0704  1.8779  0.0568
 5622WAT      O17267   0.077   1.520   4.429  0.3857  0.0668  0.7439
 5622WAT     H117268  -0.003   1.572   4.428  0.6918  0.5403  0.6855
 5622WAT     H217269   0.143   1.576   4.386  0.3499 -0.9418 -0.7014
 5623WAT      O17270   2.707   6.348   4.730 -0.2699  0.1392  0.5571
 5623WAT     H117271   2.793   6.314   4.752 -1.0685 -1.4424  1.3562
 5623WAT     H217272   2.647   6.303   4.790 -1.6410  1.3193  0.1269
 5624WAT      O17273   1.092   4.429   2.019 -0.1304 -0.0841  0.2177
 5624WAT     H117274   1.089   4.351   2.074 -1.7424  1.5168  2.5362
 5624WAT     H217275   1.155   4.486   2.062  0.1862  0.3851 -0.8288
 5625WAT      O17276   4.732   2.695   5.989  0.8182 -0.1235  0.0327
 5625WAT     H117277   4.742   2.600   5.990 -0.2090 -0.2460 -0.3837
 5625WAT     H217278   4.638   2.709   5.978  1.1270  0.9460 -1.4527
 5626WAT      O17279   1.302   3.465   6.011 -0.3105  0.3322 -0.2312
 5626WAT     H117280   1.249   3.427   6.081  0.6095  1.6476  1.2550
 5626WAT     H217281   1.392   3.440   6.033 -0.0130  0.6390 -1.0415
 5627WAT      O17282   2.388   3.554   0.086  0.2128 -0.1924  0.0725
 5627WAT     H117283   2.347   3.580   0.169  0.3958  1.9995 -0.4610
 5627WAT     H217284   2.481   3.577   0.097  0.1448  0.6193 -0.9001
 5628WAT      O17285   5.462   6.551   3.049  0.3102  0.1040  0.1662
 5628WAT     H117286   5.465   6.603   3.130  0.8402  1.0943 -0.4673
 5628WAT     H217287   5.542   6.499   3.051  0.4216  0.2749  0.1861
 5629WAT      O17288   2.968   5.315   4.209 -0.4576 -0.2736 -0.3592
 5629WAT     H117289   3.029   5.262   4.261 -0.0532  1.7056  1.3202
 5629WAT     H217290   3.019   5.392   4.183 -1.4789  0.1044 -1.3403
 5630WAT      O17291   6.035   3.887   2.850  0.4987 -0.1970  0.0114
 5630WAT     H117292   6.091   3.965   2.853  0.0949  0.2675 -2.2408
 5630WAT     H217293   5.953   3.914   2.889  1.5461 -0.7111  2.8112
 5631WAT      O17294   5.209   1.451   2.975 -0.1135 -0.5130 -0.0280
 5631WAT     H117295   5.202   1.430   3.069  0.3446 -0.3130  0.0513
 5631WAT     H217296   5.119   1.448   2.944 -0.1884 -1.4430  0.2346
 5632WAT      O17297   6.682   1.476   2.661 -0.2050  0.1047 -0.5043
 5632WAT     H117298   6.669   1.382   2.672  0.8939 -0.0099 -0.0754
 5632WAT     H217299   6.728   1.485   2.577 -1.0195  0.3417 -0.9477
 5633WAT      O17300   2.162   5.626   1.458 -0.1981  0.3495  0.1418
 5633WAT     H117301   2.096   5.693   1.477 -0.1027  1.1822 -2.2255
 5633WAT     H217302   2.125   5.545   1.494 -2.8303  0.6692 -1.6199
 5634WAT      O17303   6.625   5.334   4.848  0.1469 -0.3886  0.1531
 5634WAT     H117304   6.558   5.394   4.817  0.1773 -0.9448 -1.0517
 5634WAT     H217305   6.577   5.256   4.875  0.3330 -1.0426 -1.3391
 5635WAT      O17306   0.725   1.047   2.241 -0.2224  0.1431 -0.3472
 5635WAT     H117307   0.767   1.133   2.230 -1.1474  0.8888  1.4091
 5635WAT     H217308   0.632   1.068   2.253 -0.3248 -1.0092  1.0733
 5636WAT      O17309   2.585   4.431   2.699 -0.5374 -0.0495 -0.2671
 5636WAT     H117310   2.502   4.387   2.684 -0.8863  0.1060  1.0435
 5636WAT     H217311   2.617   4.394   2.782 -0.0919  1.0376  0.0675
 5637WAT      O17312   3.053   5.275   0.935  0.3298  0.0696  0.1710
 5637WAT     H117313   3.016   5.336   0.999  1.6489  1.3081 -0.1899
 5637WAT     H217314   2.986   5.267   0.867 -0.8185 -0.7545  1.3596
 5638WAT      O17315   0.340   2.991   4.715 -0.4887  0.1910 -0.0251
 5638WAT     H117316   0.427   2.955   4.734  0.9540  4.0548  1.9188
 5638WAT     H217317   0.308   3.020   4.801 -3.0974  0.1481 -0.9210
 5639WAT      O17318   5.995   5.550   5.985 -0.3063 -0.1725 -0.4797
 5639WAT     H117319   5.927   5.615   6.005  0.2962 -0.3451  2.6306
 5639WAT     H217320   6.070   5.602   5.958 -0.4985  0.3151 -0.1113
 5640WAT      O17321   5.692   1.272   5.655  0.1223  0.1532 -0.3336
 5640WAT     H117322   5.728   1.359   5.672  0.2832  0.1542 -0.6604
 5640WAT     H217323   5.629   1.287   5.584 -0.3647  0.1176  0.0897
 5641WAT      O17324   1.082   0.478   5.615  0.0385 -0.8280 -0.4654
 5641WAT     H117325   1.027   0.548   5.651 -0.5524 -0.5139 -1.9098
 5641WAT     H217326   1.020   0.418   5.574  0.7060 -0.9730 -1.2723
 5642WAT      O17327   2.027   1.785   1.674 -0.1183  0.0719  0.2979
 5642WAT     H117328   2.016   1.792   1.769  0.7597  0.4991  0.3759
 5642WAT     H217329   2.075   1.864   1.650 -2.5708  1.3173 -0.8844
 5643WAT      O17330   1.667   6.593   4.211 -0.4229 -0.2665  0.4476
 5643WAT     H117331   1.626   6.672   4.176 -0.3006 -0.2700  0.2968
 5643WAT     H217332   1.597   6.550   4.261 -1.3259 -1.5011 -1.7389
 5644WAT      O17333   5.857   6.294   3.777  0.4399  0.0864 -0.2599
 5644WAT     H117334   5.879   6.384   3.798  1.9630 -0.1344 -0.7634
 5644WAT     H217335   5.847   6.251   3.862  0.0300  0.6420 -0.0218
 5645WAT      O17336   7.492   1.417   0.592 -0.1667 -0.1555 -0.0257
 5645WAT     H117337   7.444   1.486   0.546  0.5035 -0.4603 -1.2274
 5645WAT     H217338   7.428   1.380   0.653 -0.6864  1.1576  0.2486
 5646WAT      O17339   6.452   6.146   5.996  0.0866  0.2409 -0.2239
 5646WAT     H117340   6.437   6.147   6.091 -0.2541  0.2888 -0.2789
 5646WAT     H217341   6.507   6.069   5.982 -1.4011 -0.8461 -0.2189
 5647WAT      O17342   3.800   0.722   3.048  0.1200 -0.2132  0.1182
 5647WAT     H117343   3.813   0.627   3.056 -0.1322 -0.3598 -1.1183
 5647WAT     H217344   3.887   0.756   3.027 -0.1223 -0.3819 -1.1915
 5648WAT      O17345   4.553   2.797   1.561 -0.0343  0.3396  0.0282
 5648WAT     H117346   4.578   2.793   1.654 -0.5889 -0.5113  0.1517
 5648WAT     H217347   4.472   2.747   1.556 -0.8210  1.6413 -0.6673
 5649WAT      O17348   3.387   5.228   1.094  0.7867 -0.1081 -0.2062
 5649WAT     H117349   3.309   5.222   1.149  1.3126  1.1377  0.7182
 5649WAT     H217350   3.370   5.167   1.022 -1.8863  1.4939 -1.0744
 5650WAT      O17351   5.987   1.721   5.385  0.0582  0.0289 -0.4680
 5650WAT     H117352   6.036   1.641   5.365 -0.9419 -0.9266  0.7418
 5650WAT     H217353   5.970   1.716   5.479  1.0148  2.2903 -0.1118
 5651WAT      O17354   6.646   0.670   2.540  0.3035  0.5898  0.3931
 5651WAT     H117355   6.593   0.664   2.619  0.9511  0.5925  0.8365
 5651WAT     H217356   6.674   0.580   2.522 -3.8194 -0.3842 -2.6854
 5652WAT      O17357   5.607   3.077   4.563  0.0642  0.2122 -0.5740
 5652WAT     H117358   5.663   3.022   4.618 -1.1648  0.1237  0.6518
 5652WAT     H217359   5.643   3.067   4.475  1.3101 -0.6751  0.0020
 5653WAT      O17360   5.875   7.049   1.060  0.0732  0.1766 -0.2622
 5653WAT     H117361   5.933   7.093   1.123 -1.3100  2.4306 -0.4354
 5653WAT     H217362   5.850   6.967   1.103  2.1720 -0.1553  0.4369
 5654WAT      O17363   4.034   7.036   0.353  0.4849  0.0635  0.1961
 5654WAT     H117364   4.105   6.997   0.403  0.2748  0.1346  0.5554
 5654WAT     H217365   4.001   7.107   0.409  0.5246  0.4197 -0.2235
 5655WAT      O17366   0.907   4.293   0.650 -0.2310 -0.2761 -0.3901
 5655WAT     H117367   0.814   4.294   0.672  0.0367 -2.0999  0.9850
 5655WAT     H217368   0.949   4.343   0.720  0.0864 -1.8143  0.5534
 5656WAT      O17369   2.806   1.667   5.297 -0.6702 -0.3166  0.3372
 5656WAT     H117370   2.829   1.656   5.389  0.0181 -0.4001  0.1589
 5656WAT     H217371   2.839   1.589   5.254  1.1120  0.7504 -0.3552
 5657WAT      O17372   0.752   0.516   2.773  0.4630 -0.0873  0.5607
 5657WAT     H117373   0.784   0.525   2.683  1.2289 -0.6543  0.7716
 5657WAT     H217374   0.684   0.450   2.767 -0.2131  0.6134  0.2334
 5658WAT      O17375   1.103   3.668   4.547 -0.0627  0.5912  0.2512
 5658WAT     H117376   1.047   3.714   4.609 -0.0762 -1.0538  1.5304
 5658WAT     H217377   1.189   3.668   4.588  0.1846  0.4172 -0.2563
 5659WAT      O17378   5.141   6.459   2.179  0.0700 -0.4847  0.3743
 5659WAT     H117379   5.214   6.407   2.215  0.8783  0.8045  0.6520
 5659WAT     H217380   5.066   6.435   2.233  0.8602  0.0570  1.7547
 5660WAT      O17381   4.585   1.709   0.767 -0.2016  0.1031 -0.2761
 5660WAT     H117382   4.533   1.687   0.844  1.1477 -2.5695 -0.0325
 5660WAT     H217383   4.674   1.679   0.787  0.6901  1.3133 -2.0499
 5661WAT      O17384   5.736   6.034   2.884  0.0000  0.0380  0.1202
 5661WAT     H117385   5.706   5.946   2.859 -0.4441  0.4332 -0.8041
 5661WAT     H217386   5.677   6.060   2.955  0.6874 -0.7443  0.9960
 5662WAT      O17387   7.416   3.875   1.727  0.0588  0.7988  0.1863
 5662WAT     H117388   7.330   3.876   1.769 -0.0320  0.3323  0.0097
 5662WAT     H217389   7.478   3.876   1.800 -0.0989 -0.0077  0.3388
 5663WAT      O17390   6.874   5.383   3.333  0.3953  0.0333  0.2258
 5663WAT     H117391   6.923   5.318   3.383 -0.1164 -0.3195  0.2724
 5663WAT     H217392   6.867   5.344   3.245 -1.8602 -1.0372  0.8138
 5664WAT      O17393   0.850   3.573   2.196  0.0310 -0.1719 -0.9242
 5664WAT     H117394   0.870   3.590   2.288  1.7409 -2.0233 -0.8796
 5664WAT     H217395   0.754   3.571   2.193 -0.0656  0.1153  0.7789
 5665WAT      O17396   3.897   3.036   6.002 -0.3881  0.3045 -0.2801
 5665WAT     H117397   3.860   2.999   6.082 -0.1340 -0.1664 -0.3777
 5665WAT     H217398   3.972   2.980   5.982  1.0465  1.8429  0.4963
 5666WAT      O17399   5.373   6.787   2.860 -0.2058  0.1178  0.3537
 5666WAT     H117400   5.371   6.706   2.910 -1.8512 -0.0252  0.0803
 5666WAT     H217401   5.427   6.846   2.913  0.6281 -0.9851  0.7741
 5667WAT      O17402   2.791   4.394   2.133 -0.0106  0.0588  0.3300
 5667WAT     H117403   2.859   4.366   2.195 -0.2006  2.2864  1.6756
 5667WAT     H217404   2.720   4.426   2.189 -0.7123  0.9811 -1.0276
 5668WAT      O17405   5.050   4.542   0.842  0.1945 -0.1474 -0.2607
 5668WAT     H117406   5.005   4.508   0.920 -0.4047 -0.6400 -0.8160
 5668WAT     H217407   5.034   4.636   0.846 -1.7427 -0.3968 -0.9478
 5669WAT      O17408   2.710   2.521   4.134 -0.2258 -0.5810 -0.3446
 5669WAT     H117409   2.724   2.557   4.221 -0.4212 -0.8917 -0.1811
 5669WAT     H217410   2.785   2.464   4.119  0.4709  0.4549 -0.9101
 5670WAT      O17411   6.702   2.883   0.295  0.0166  0.2257 -0.3996
 5670WAT     H117412   6.773   2.824   0.319  0.8160  1.4489  0.3529
 5670WAT     H217413   6.670   2.849   0.211 -1.1072 -2.6211  1.0452
 5671WAT      O17414   3.508   1.163   3.246  0.7799  0.0451  0.3872
 5671WAT     H117415   3.515   1.110   3.167  2.6418 -1.5267  1.5253
 5671WAT     H217416   3.428   1.133   3.288  0.8771 -0.5999  0.1208
 5672WAT      O17417   7.028   2.644   2.345  0.0918  0.2481  0.1129
 5672WAT     H117418   7.005   2.693   2.424 -0.7185 -0.2918  0.2163
 5672WAT     H217419   7.068   2.563   2.378  1.0260  0.6198 -0.0551
 5673WAT      O17420   0.570   6.326   5.713 -0.4787 -0.2409  0.1547
 5673WAT     H117421   0.648   6.330   5.659 -0.7552  2.2131 -0.1819
 5673WAT     H217422   0.516   6.258   5.673 -0.2168  0.7638 -2.0397
 5674WAT      O17423   3.926   0.878   1.770 -0.9130 -0.3434  0.2921
 5674WAT     H117424   3.924   0.928   1.851  0.0216 -0.4367  0.3827
 5674WAT     H217425   4.018   0.874   1.746 -1.1987 -0.1347 -0.8937
 5675WAT      O17426   2.969   6.902   3.549 -0.3903  0.1735 -0.2315
 5675WAT     H117427   2.987   6.981   3.600  1.0503 -0.7229  0.7411
 5675WAT     H217428   3.027   6.910   3.473  0.3231 -0.2700  0.2501
 5676WAT      O17429   0.858   1.823   3.532 -0.1960 -0.6160  0.1057
 5676WAT     H117430   0.902   1.854   3.611  0.0548 -0.5473 -0.0579
 5676WAT     H217431   0.847   1.729   3.546  0.2665 -0.6846  0.0274
 5677WAT      O17432   2.565   0.925   3.794 -0.2422  0.2125 -0.4850
 5677WAT     H117433   2.543   0.835   3.820 -1.2108  0.9522  1.4919
 5677WAT     H217434   2.506   0.944   3.721 -1.4051 -0.1574  0.3191
 5678WAT      O17435   1.877   4.775   2.599 -0.3254  0.0289 -0.4135
 5678WAT     H117436   1.788   4.750   2.622 -0.0150 -0.7834 -0.0631
 5678WAT     H217437   1.869   4.864   2.564 -0.8170  1.5336  3.0780
 5679WAT      O17438   4.499   2.171   1.065  0.3263 -0.4570  0.0039
 5679WAT     H117439   4.440   2.234   1.023 -0.9786 -1.1572  0.7358
 5679WAT     H217440   4.502   2.199   1.156  0.2714 -1.0578  0.1909
 5680WAT      O17441   5.551   1.869   6.181  0.0636  0.0757 -0.0139
 5680WAT     H117442   5.501   1.803   6.133  0.6986  0.0184 -0.6137
 5680WAT     H217443   5.528   1.952   6.138  0.7827  0.0005 -0.5437
 5681WAT      O17444   4.196   4.788   0.083  0.8627 -0.3438 -0.5794
 5681WAT     H117445   4.132   4.743   0.139  0.6401  0.2070 -0.3820
 5681WAT     H217446   4.279   4.779   0.131  0.5778  0.5848  0.1274
 5682WAT      O17447   6.055   5.143   3.153 -0.1886  0.8827  1.2936
 5682WAT     H117448   6.005   5.224   3.167  0.3545  1.4857 -0.0728
 5682WAT     H217449   6.056   5.132   3.058 -0.2812 -0.7652  1.4664
 5683WAT      O17450   2.489   3.569   4.525  0.2925  0.4860 -0.3215
 5683WAT     H117451   2.533   3.518   4.592  0.3096 -0.5287 -1.0787
 5683WAT     H217452   2.548   3.567   4.450  1.1521  3.1867  0.1752
 5684WAT      O17453   3.189   2.728   0.874 -0.3302 -0.1065  0.3441
 5684WAT     H117454   3.154   2.655   0.925 -0.2494  0.2608  0.9433
 5684WAT     H217455   3.210   2.795   0.940  0.9432 -0.0914 -0.0418
 5685WAT      O17456   1.847   6.941   1.585  0.3998 -0.2945 -0.2825
 5685WAT     H117457   1.936   6.916   1.611  0.2207 -1.9770 -1.1078
 5685WAT     H217458   1.843   7.035   1.600  0.7990 -0.7704  4.2394
 5686WAT      O17459   4.248   6.452   4.085 -0.2848  0.1466  0.1493
 5686WAT     H117460   4.256   6.360   4.110  0.5970  0.3413  0.6153
 5686WAT     H217461   4.327   6.494   4.119 -2.0532  1.7154  2.6783
 5687WAT      O17462   3.756   3.945   1.767 -0.0176  0.1838 -0.4217
 5687WAT     H117463   3.669   3.963   1.801  0.6832  1.1757  0.9300
 5687WAT     H217464   3.813   4.009   1.809  1.3837 -0.4506 -1.2478
 5688WAT      O17465   6.455   5.654   2.331  0.1430 -0.2288  0.2164
 5688WAT     H117466   6.549   5.650   2.315 -0.1662  0.2513 -1.9098
 5688WAT     H217467   6.444   5.728   2.390  1.0165  0.2208 -0.1751
 5689WAT      O17468   1.710   1.930   4.680  0.1489 -0.9232  0.0187
 5689WAT     H117469   1.629   1.885   4.656  0.1535 -1.2241  0.5586
 5689WAT     H217470   1.750   1.874   4.747 -0.1886  0.1936  1.2157
 5690WAT      O17471   1.763   0.281   2.728 -0.0588 -0.4011 -0.1238
 5690WAT     H117472   1.776   0.374   2.708  1.6471 -0.2001  1.6506
 5690WAT     H217473   1.827   0.236   2.672  0.1912 -0.3741  0.1389
 5691WAT      O17474   3.074   4.879   3.391 -0.0595  0.1230  0.7916
 5691WAT     H117475   3.040   4.818   3.456  2.1186 -0.8779  1.1114
 5691WAT     H217476   3.169   4.877   3.405  0.3678  0.8433 -1.5697
 5692WAT      O17477   0.537   1.850   5.636  0.2329 -0.2718 -0.1703
 5692WAT     H117478   0.487   1.890   5.565  2.0442  1.5234 -0.5204
 5692WAT     H217479   0.623   1.833   5.598  0.2791 -2.3294  0.6976
 5693WAT      O17480   3.468   6.383   3.494  0.0428  0.1781 -0.1068
 5693WAT     H117481   3.478   6.453   3.558  0.7622  0.1991 -0.2391
 5693WAT     H217482   3.403   6.416   3.432 -0.9321  0.0159  0.7961
 5694WAT      O17483   1.403   3.213   6.178 -0.0623 -0.5137  0.2477
 5694WAT     H117484   1.377   3.123   6.195  0.7133 -0.9210 -0.5901
 5694WAT     H217485   1.423   3.214   6.084  0.4619  0.3904  0.3603
 5695WAT      O17486   2.025   0.068   6.135  0.0532  0.2972 -0.2508
 5695WAT     H117487   1.951   0.086   6.193 -0.1745  1.9597 -1.0161
 5695WAT     H217488   2.096   0.044   6.195 -1.1799 -1.7910  0.4693
 5696WAT      O17489   5.071   3.391   2.705  0.2061 -0.8059  0.3670
 5696WAT     H117490   4.983   3.396   2.742  0.3851  1.4625  0.6306
 5696WAT     H217491   5.112   3.316   2.748 -0.9141 -0.6154  1.8026
 5697WAT      O17492   5.694   2.893   3.489 -0.0244 -0.5193 -0.3463
 5697WAT     H117493   5.666   2.980   3.460  4.3251  1.7595  1.3076
 5697WAT     H217494   5.633   2.871   3.560 -0.1528  2.1888  0.5310
 5698WAT      O17495   2.590   2.529   2.888 -0.1004 -0.1676  0.0382
 5698WAT     H117496   2.498   2.518   2.913  0.2890 -1.6304  0.9268
 5698WAT     H217497   2.595   2.619   2.854 -1.9197 -0.1839 -0.3566
 5699WAT      O17498   6.666   0.377   4.445 -0.4433  0.0878 -0.7039
 5699WAT     H117499   6.760   0.392   4.451 -0.1643 -1.8349  0.4599
 5699WAT     H217500   6.627   0.454   4.486  0.5786  1.0428 -1.4563
 5700WAT      O17501   0.300   2.908   1.734  0.0421 -0.2254 -0.3682
 5700WAT     H117502   0.247   2.984   1.760  2.0134  0.8818  0.7014
 5700WAT     H217503   0.305   2.854   1.813  0.0499 -0.5911 -0.6178
 5701WAT      O17504   4.871   3.791   1.893  0.7446 -0.5381 -0.3259
 5701WAT     H117505   4.834   3.845   1.824  1.3960  0.5875  0.1882
 5701WAT     H217506   4.798   3.735   1.921 -0.0023  0.2108 -0.7324
 5702WAT      O17507   0.048   0.413   5.452  0.4976  0.5347 -0.1486
 5702WAT     H117508   0.051   0.317   5.454  1.5733  0.5504 -0.2592
 5702WAT     H217509  -0.035   0.435   5.495  1.8940 -0.3505  3.3502
 5703WAT      O17510   2.563   6.866   0.400  0.1381  0.2144 -0.4693
 5703WAT     H117511   2.535   6.902   0.484  0.3129 -0.2702 -0.2034
 5703WAT     H217512   2.508   6.789   0.387 -1.6733  1.6551 -1.9955
 5704WAT      O17513   5.371   3.147   4.640  0.5127 -0.0570 -0.7432
 5704WAT     H117514   5.466   3.145   4.631  0.4163 -0.3373 -1.7970
 5704WAT     H217515   5.345   3.054   4.637  0.2315 -0.0011 -0.1587
 5705WAT      O17516   3.723   1.316   4.002  0.4156 -0.3488  0.3303
 5705WAT     H117517   3.810   1.298   4.038 -0.5124  0.2950  3.1069
 5705WAT     H217518   3.674   1.235   4.016  0.1921 -0.2863 -0.0688
 5706WAT      O17519   7.381   2.039   5.812 -0.1504  0.0808  0.0563
 5706WAT     H117520   7.342   1.968   5.760 -1.4434  0.3445  0.6249
 5706WAT     H217521   7.424   1.993   5.885 -1.7026 -0.1011  0.8847
 5707WAT      O17522   4.641   4.026   3.680 -0.0524 -0.0433  0.4294
 5707WAT     H117523   4.546   4.022   3.689 -0.1023  1.0777  0.5178
 5707WAT     H217524   4.665   3.941   3.642 -0.7711 -1.5768  3.1060
 5708WAT      O17525   4.457   4.051   0.165  0.5464  0.0200  0.6037
 5708WAT     H117526   4.483   4.080   0.252 -1.0241 -1.0784  1.4961
 5708WAT     H217527   4.363   4.071   0.160  0.3538 -1.0129 -0.3677
 5709WAT      O17528   5.504   2.763   1.732  0.0042 -0.2429  0.0410
 5709WAT     H117529   5.541   2.733   1.649 -1.5849  1.5742 -1.4283
 5709WAT     H217530   5.569   2.739   1.797  0.8878 -2.6055 -1.5732
 5710WAT      O17531   7.242   6.290   4.350  0.1621 -0.0873 -0.1023
 5710WAT     H117532   7.169   6.339   4.314 -0.1202  0.0791  0.6828
 5710WAT     H217533   7.207   6.203   4.368  0.5217 -0.4293 -0.9919
 5711WAT      O17534   5.721   1.203   3.070  0.1112 -0.2559  0.1230
 5711WAT     H117535   5.794   1.160   3.114  0.2566 -0.2853 -0.1426
 5711WAT     H217536   5.745   1.296   3.067  0.1089 -0.2560  0.0943
 5712WAT      O17537   6.342   3.202   5.271 -0.2419  0.8535  0.2171
 5712WAT     H117538   6.398   3.125   5.264  0.8144  1.5527  0.8155
 5712WAT     H217539   6.253   3.167   5.278  0.2485 -0.3084  0.7130
 5713WAT      O17540   3.998   3.433   0.505 -0.1706 -0.4195  0.2476
 5713WAT     H117541   4.037   3.452   0.590  1.7020  0.5795 -0.7756
 5713WAT     H217542   3.947   3.511   0.484 -0.3067 -0.5019  0.2706
 5714WAT      O17543   4.864   4.239   1.188 -0.6339  0.5935 -0.3450
 5714WAT     H117544   4.772   4.231   1.165 -0.5849  1.1619 -0.7529
 5714WAT     H217545   4.896   4.313   1.136  0.2346 -0.0655 -0.7846
 5715WAT      O17546   7.534   3.259   5.859 -0.6103  0.1971 -0.1636
 5715WAT     H117547   7.541   3.179   5.911  0.1022 -0.4390 -1.2034
 5715WAT     H217548   7.490   3.321   5.917 -1.2809 -0.9754  0.6214
 5716WAT      O17549   1.847   4.897   1.751 -0.0058 -0.3396 -0.1949
 5716WAT     H117550   1.775   4.924   1.808  0.5503 -0.0103  0.3801
 5716WAT     H217551   1.891   4.979   1.728 -0.5228 -0.4183 -1.5333
 5717WAT      O17552   2.616   7.136   1.056 -0.0199 -0.0320 -0.4189
 5717WAT     H117553   2.640   7.112   0.967  0.1999 -1.1359 -0.0779
 5717WAT     H217554   2.576   7.223   1.048  2.1022  0.9205 -1.2806
 5718WAT      O17555   4.502   3.793   3.256 -0.1757  0.1862  0.1014
 5718WAT     H117556   4.478   3.885   3.260  1.4862  0.6777 -0.4028
 5718WAT     H217557   4.440   3.749   3.314 -3.3443  1.0548 -2.3597
 5719WAT      O17558   4.573   3.981   0.597  0.0320 -0.0203  0.0359
 5719WAT     H117559   4.619   3.897   0.590 -0.2768 -0.3509  1.4880
 5719WAT     H217560   4.483   3.956   0.621  0.3239  0.7581  2.0832
 5720WAT      O17561   3.643   3.721   2.514  0.2091 -0.2463  0.3620
 5720WAT     H117562   3.662   3.764   2.597  1.4102  0.6993 -0.3656
 5720WAT     H217563   3.548   3.720   2.508 -0.0265 -2.4454  2.8015
 5721WAT      O17564   2.276   3.062   0.072  0.2999  0.0160  0.2502
 5721WAT     H117565   2.240   2.995   0.130  2.8676 -1.8147 -0.1157
 5721WAT     H217566   2.245   3.145   0.110 -0.4197 -1.2258  2.5785
 5722WAT      O17567   7.220   1.281   5.791  0.1627  0.1090  0.7319
 5722WAT     H117568   7.225   1.326   5.706 -1.2203 -0.9513  0.0559
 5722WAT     H217569   7.136   1.309   5.827 -0.2654 -1.1531  0.7416
 5723WAT      O17570   5.830   2.517   2.698  0.7344 -0.4201  0.0628
 5723WAT     H117571   5.909   2.506   2.751  0.6803 -0.3554  0.1583
 5723WAT     H217572   5.761   2.472   2.748  0.7331 -0.5759 -0.0759
 5724WAT      O17573   3.391   6.621   4.165 -0.1367 -0.0670 -0.6599
 5724WAT     H117574   3.463   6.684   4.165  2.0069 -2.3445 -2.3900
 5724WAT     H217575   3.355   6.627   4.254  1.8075  1.5416  0.1064
 5725WAT      O17576   6.821   3.994   1.839 -0.1535 -0.3241  0.0296
 5725WAT     H117577   6.823   3.958   1.750 -1.0294 -0.9046  0.2312
 5725WAT     H217578   6.744   4.051   1.840  0.2811  0.2714  0.2048
 5726WAT      O17579   1.004   2.696   0.401 -0.7558 -0.0414  0.1142
 5726WAT     H117580   1.008   2.745   0.484  0.2990  0.2044 -0.0671
 5726WAT     H217581   0.911   2.677   0.389 -0.9287 -0.0478  1.3388
 5727WAT      O17582   2.654   4.670   5.591  0.3994  0.2299  0.0170
 5727WAT     H117583   2.616   4.716   5.666  0.6344  1.1004 -0.3866
 5727WAT     H217584   2.734   4.720   5.571 -0.0993  0.5160 -1.3333
 5728WAT      O17585   6.439   5.544   6.050  0.3104  0.2559  0.2827
 5728WAT     H117586   6.430   5.588   6.135 -0.5930  1.8429 -0.5851
 5728WAT     H217587   6.467   5.455   6.072 -0.3133  0.4954  2.2634
 5729WAT      O17588   1.049   1.518   2.013  0.0033 -0.0068  0.6106
 5729WAT     H117589   1.086   1.607   2.015 -1.9381  0.8278  1.9875
 5729WAT     H217590   1.091   1.473   2.086 -0.7440  0.5629  1.4153
 5730WAT      O17591   5.889   0.162   4.272 -0.3407  0.2707  0.0165
 5730WAT     H117592   5.949   0.176   4.198  1.5109 -1.0793  1.1723
 5730WAT     H217593   5.932   0.204   4.346 -0.9148 -0.5619  0.8405
 5731WAT      O17594   4.814   1.380   1.864  0.0914  0.6064  0.1695
 5731WAT     H117595   4.767   1.462   1.881  1.0171  1.0476  0.6377
 5731WAT     H217596   4.756   1.312   1.901  0.4333  1.2573  2.0161
 5732WAT      O17597   2.564   5.966   4.243  0.6375  0.3450 -0.1253
 5732WAT     H117598   2.580   5.939   4.153 -0.6718 -1.1650  0.0370
 5732WAT     H217599   2.598   6.055   4.249  1.1378  0.3084 -1.9779
 5733WAT      O17600   5.674   4.972   1.250 -0.3731  0.6337 -0.0388
 5733WAT     H117601   5.621   4.911   1.301 -0.5403  0.3791 -0.5140
 5733WAT     H217602   5.754   4.983   1.302 -0.2150 -0.2153 -0.0855
 5734WAT      O17603   3.133   4.450   4.193  0.2700 -0.4727 -0.1708
 5734WAT     H117604   3.059   4.482   4.143 -1.3100 -1.9250  1.1003
 5734WAT     H217605   3.145   4.514   4.264  0.7048  0.1203 -0.7689
 5735WAT      O17606   3.343   0.095   3.413  0.4323 -0.3022 -0.0545
 5735WAT     H117607   3.396   0.101   3.493  0.3448 -1.3828  0.0936
 5735WAT     H217608   3.292   0.176   3.413  0.0320 -0.5213  1.2764
 5736WAT      O17609   1.404   1.373   1.248  0.7528  0.8035  0.1540
 5736WAT     H117610   1.429   1.283   1.267 -0.4607 -0.1133 -2.1648
 5736WAT     H217611   1.341   1.396   1.317  1.7393  0.2518  1.2773
 5737WAT      O17612   6.998   3.498   3.301  0.1184 -0.4459  0.2933
 5737WAT     H117613   7.037   3.579   3.268 -1.1051  0.2457  0.5138
 5737WAT     H217614   7.069   3.456   3.350  0.8724  0.3077 -0.1254
 5738WAT      O17615   2.333   5.608   5.239  0.2491 -0.7634  0.1045
 5738WAT     H117616   2.338   5.516   5.266  1.8791 -0.8594 -0.4376
 5738WAT     H217617   2.249   5.639   5.275 -1.0705 -2.8575 -0.9820
 5739WAT      O17618   1.609   4.945   2.348  0.4714 -0.4129 -0.3724
 5739WAT     H117619   1.646   4.938   2.260  2.1999 -2.2145  0.4071
 5739WAT     H217620   1.592   4.854   2.374  0.0681  0.0744  1.1688
 5740WAT      O17621   6.922   2.736   0.359 -0.6071 -0.0449 -0.1577
 5740WAT     H117622   6.971   2.760   0.437  2.3339 -0.3380 -1.7301
 5740WAT     H217623   6.917   2.640   0.363  0.0758 -0.1080 -0.5576
 5741WAT      O17624   3.870   6.510   4.648  0.3546  0.3767  0.9793
 5741WAT     H117625   3.950   6.476   4.609 -0.6791 -0.5449 -0.4475
 5741WAT     H217626   3.885   6.505   4.742  2.0293  0.4069  0.7505
 5742WAT      O17627   6.411   0.796   1.611 -0.5535  0.4054  0.3575
 5742WAT     H117628   6.487   0.750   1.646 -1.8612 -0.4974  2.1597
 5742WAT     H217629   6.405   0.876   1.662 -1.2960  0.0397  0.8825
 5743WAT      O17630   3.701   0.063   5.332 -0.0774  0.7681 -0.5319
 5743WAT     H117631   3.622   0.030   5.376  0.9498 -1.2485 -0.0649
 5743WAT     H217632   3.689   0.158   5.328 -1.2247  0.8278  2.1546
 5744WAT      O17633   7.406   5.707   5.037 -0.2126 -0.0993 -0.2135
 5744WAT     H117634   7.317   5.680   5.016 -0.6468  0.1537  1.2230
 5744WAT     H217635   7.413   5.698   5.132  1.5591 -0.8966 -0.3798
 5745WAT      O17636   1.101   6.554   3.318 -0.5071  0.3457 -0.3913
 5745WAT     H117637   1.023   6.553   3.262  0.1202  0.1702 -1.2799
 5745WAT     H217638   1.136   6.642   3.310  0.2894 -0.0327 -1.2956
 5746WAT      O17639   3.308   4.935   5.940  0.4653 -0.2969 -0.1217
 5746WAT     H117640   3.366   4.861   5.958  0.2174 -0.7624 -1.1359
 5746WAT     H217641   3.321   4.995   6.014  0.2432 -1.6084  1.0281
 5747WAT      O17642   2.159   5.017   3.960 -0.2478 -0.1085 -0.1690
 5747WAT     H117643   2.087   4.959   3.935 -0.8583  0.7795 -0.5577
 5747WAT     H217644   2.201   5.040   3.877  0.2259 -0.2943  0.0185
 5748WAT      O17645   0.040   0.189   0.839 -0.3747  0.0862  0.0040
 5748WAT     H117646   0.016   0.282   0.836  0.7878  0.4040  0.2332
 5748WAT     H217647  -0.022   0.150   0.901 -0.7050  0.7458  0.0957
 5749WAT      O17648   6.895   1.353   2.922 -0.2142  0.6826  0.4508
 5749WAT     H117649   6.906   1.404   3.002  1.7089  4.4673 -1.9004
 5749WAT     H217650   6.811   1.381   2.887 -1.0702 -0.9908  1.0604
 5750WAT      O17651   6.182   3.389   5.037 -0.1883 -0.6064  0.3857
 5750WAT     H117652   6.108   3.442   5.006  0.1263 -0.6710 -0.5221
 5750WAT     H217653   6.179   3.396   5.132 -1.8375 -1.2457  0.4125
 5751WAT      O17654   3.394   5.947   3.131 -0.1810 -0.3148 -0.5639
 5751WAT     H117655   3.386   6.037   3.162 -0.3703 -0.9830  1.5056
 5751WAT     H217656   3.321   5.901   3.173  0.1938 -1.5332 -1.2000
 5752WAT      O17657   7.248   4.284   0.795  0.0259 -0.2623  0.2590
 5752WAT     H117658   7.338   4.281   0.764  0.6525 -1.9006  1.9991
 5752WAT     H217659   7.247   4.354   0.860 -0.8789  2.0593 -2.1008
 5753WAT      O17660   3.543   2.421   0.679  0.0086  0.1259 -0.1545
 5753WAT     H117661   3.564   2.403   0.770 -0.1877 -0.9557 -0.3168
 5753WAT     H217662   3.506   2.510   0.680  1.2870  0.6824  0.6074
 5754WAT      O17663   0.463   6.934   2.715  0.0383  0.1289  0.1570
 5754WAT     H117664   0.521   6.940   2.791  1.6001  0.3293 -1.0152
 5754WAT     H217665   0.379   6.905   2.752  0.9411 -0.4609  1.8526
 5755WAT      O17666   2.792   1.544   5.988  0.0289 -0.2298  0.0162
 5755WAT     H117667   2.758   1.487   6.056  0.8526 -0.9166 -0.1353
 5755WAT     H217668   2.845   1.487   5.932 -0.1144  0.4433 -0.8353
 5756WAT      O17669   7.189   0.792   3.424 -0.2630 -0.0633  0.4971
 5756WAT     H117670   7.120   0.828   3.368 -0.0369 -1.1268 -0.5172
 5756WAT     H217671   7.150   0.715   3.466  0.3998 -0.9590 -0.4554
 5757WAT      O17672   1.538   5.758   0.557 -0.4771  0.0117 -0.0471
 5757WAT     H117673   1.624   5.721   0.534  0.8944  2.0160  1.5123
 5757WAT     H217674   1.505   5.701   0.626  0.5257  0.2676  0.6772
 5758WAT      O17675   6.241   5.870   1.298  0.3301  0.2970 -0.2152
 5758WAT     H117676   6.164   5.902   1.250  0.2532 -0.6469 -0.7572
 5758WAT     H217677   6.204   5.821   1.371  0.3889 -0.5473 -0.7346
 5759WAT      O17678   7.215   0.345   2.219  0.0423  0.0691  0.2312
 5759WAT     H117679   7.254   0.415   2.271  2.1984 -0.1087 -1.0539
 5759WAT     H217680   7.272   0.270   2.232 -0.5109 -0.5591 -0.8164
 5760WAT      O17681   2.243   6.792   3.947 -0.3931  0.0055 -0.0861
 5760WAT     H117682   2.269   6.706   3.977 -1.4022 -0.3245 -0.1140
 5760WAT     H217683   2.179   6.822   4.012 -1.2933  0.0119 -0.9449
 5761WAT      O17684   0.679   3.172   4.423 -0.0484 -0.3589  0.3619
 5761WAT     H117685   0.634   3.222   4.491 -1.8572 -1.2809 -0.0733
 5761WAT     H217686   0.612   3.112   4.390  1.0817 -0.6970 -1.4714
 5762WAT      O17687   4.250   4.405   3.260 -0.0510  0.1085  0.4151
 5762WAT     H117688   4.241   4.310   3.248  0.7118 -0.3676  2.9238
 5762WAT     H217689   4.164   4.433   3.291 -0.1659  0.1703  0.0424
 5763WAT      O17690   0.631   1.175   0.970  0.4194  0.0619 -0.0384
 5763WAT     H117691   0.694   1.182   1.042 -0.3346 -2.1918  0.9376
 5763WAT     H217692   0.683   1.190   0.891  2.0888 -1.0769  0.7756
 5764WAT      O17693   4.306   4.593   1.376  0.2718  0.0363  0.0487
 5764WAT     H117694   4.271   4.509   1.347  0.0682 -0.4784  1.6500
 5764WAT     H217695   4.345   4.574   1.462  1.0679  1.3855  0.0099
 5765WAT      O17696   0.356   3.733   6.146 -0.1857  0.2822 -0.6971
 5765WAT     H117697   0.383   3.646   6.175 -0.7724 -0.0601 -1.1532
 5765WAT     H217698   0.357   3.727   6.050  0.3285  0.9554 -0.7383
 5766WAT      O17699   1.790   1.637   1.671  0.6181  0.6193 -0.0405
 5766WAT     H117700   1.724   1.703   1.653  0.4206  0.2083 -0.8835
 5766WAT     H217701   1.873   1.684   1.667  0.4907  0.7973 -0.7944
 5767WAT      O17702   0.361   3.081   5.018  0.0775 -0.3332 -0.2868
 5767WAT     H117703   0.275   3.121   5.006  0.5027  0.5916 -0.3521
 5767WAT     H217704   0.344   3.000   5.067 -0.7496  0.1862  0.2982
 5768WAT      O17705   3.628   2.777   4.727  0.4204 -0.1190 -0.1652
 5768WAT     H117706   3.553   2.825   4.693  1.4319  1.6167 -0.1008
 5768WAT     H217707   3.599   2.743   4.811 -0.8951 -1.1884 -1.0178
 5769WAT      O17708   6.846   7.149   5.615 -1.1388  0.0917  0.7496
 5769WAT     H117709   6.874   7.148   5.524  2.4544 -0.7892  1.6720
 5769WAT     H217710   6.780   7.081   5.622 -0.0406 -1.1966 -0.8729
 5770WAT      O17711   1.008   5.336   5.996 -0.0109  0.5036 -0.1891
 5770WAT     H117712   0.947   5.291   6.055  1.0034 -0.8432 -0.1351
 5770WAT     H217713   1.017   5.424   6.034 -0.2185  0.0133  1.0418
 5771WAT      O17714   5.055   3.361   3.685  0.1270  0.1719 -0.4438
 5771WAT     H117715   5.013   3.275   3.684  1.7583 -0.6612 -1.7742
 5771WAT     H217716   5.115   3.360   3.610  0.3049  2.4241 -0.4184
 5772WAT      O17717   1.659   3.826   5.416  0.5159 -0.1548  0.6868
 5772WAT     H117718   1.736   3.878   5.438 -0.2787  1.5384 -0.3356
 5772WAT     H217719   1.593   3.854   5.479 -0.1016  0.5672 -0.2572
 5773WAT      O17720   2.472   1.244   0.787  0.0958 -0.5408 -0.4787
 5773WAT     H117721   2.534   1.314   0.769 -0.7745  0.0894 -1.1295
 5773WAT     H217722   2.437   1.265   0.874 -0.0880 -0.2304 -0.6281
 5774WAT      O17723   3.208   4.144   5.989  0.0068  0.1307  0.0798
 5774WAT     H117724   3.292   4.109   6.016  0.0139  0.1947  0.1404
 5774WAT     H217725   3.227   4.232   5.956  0.1756 -0.3606 -1.2172
 5775WAT      O17726   0.012   7.151   4.966 -0.0726  0.1119  0.1281
 5775WAT     H117727  -0.053   7.081   4.978  1.7669 -1.6566  0.2274
 5775WAT     H217728  -0.008   7.187   4.879 -0.9486 -0.6632 -0.0077
 5776WAT      O17729   2.238   5.376   0.670  0.5356 -0.3214  0.1652
 5776WAT     H117730   2.311   5.378   0.732 -0.1261 -0.4518  0.9739
 5776WAT     H217731   2.262   5.311   0.605  1.0336 -0.5277  0.5536
 5777WAT      O17732   7.456   2.709   4.003  0.3188 -0.0984 -0.3280
 5777WAT     H117733   7.364   2.715   4.029  0.4299 -0.6610  0.2286
 5777WAT     H217734   7.504   2.704   4.085  0.8635  0.3427 -0.6151
 5778WAT      O17735   6.907   0.808   0.067 -0.0344 -0.0282 -0.1865
 5778WAT     H117736   6.918   0.722   0.108  1.4920 -0.5788 -1.6407
 5778WAT     H217737   6.995   0.845   0.066 -0.2693  0.5382 -1.6839
 5779WAT      O17738   4.094   4.080   4.904  0.5063  0.5739  0.4024
 5779WAT     H117739   4.040   4.108   4.978 -0.4324  0.3292 -0.1695
 5779WAT     H217740   4.071   4.139   4.833 -1.1727 -1.2505 -0.6862
 5780WAT      O17741   3.536   7.014   0.853  0.6411  0.5540 -0.5961
 5780WAT     H117742   3.613   6.970   0.818  0.4790 -0.4768  0.2848
 5780WAT     H217743   3.566   7.054   0.935  0.3931  0.7301 -0.5876
 5781WAT      O17744   4.384   4.531   2.102 -0.3567  0.0289 -0.0330
 5781WAT     H117745   4.293   4.501   2.107 -0.7390  1.3411  1.8773
 5781WAT     H217746   4.386   4.610   2.156  1.5156  1.1047 -1.5399
 5782WAT      O17747   1.037   4.218   3.309 -0.0940 -0.3117 -0.4508
 5782WAT     H117748   1.116   4.169   3.286  2.4979  2.1513  2.2267
 5782WAT     H217749   1.033   4.213   3.404 -0.8928  2.7776 -0.2206
 5783WAT      O17750   0.747   2.536   2.979 -0.2853 -0.0460  0.0123
 5783WAT     H117751   0.695   2.612   3.004  1.1730  1.1750 -0.5106
 5783WAT     H217752   0.702   2.500   2.903 -0.2964  1.0808 -0.5404
 5784WAT      O17753   1.977   0.609   5.176  0.3508 -0.5974  0.3088
 5784WAT     H117754   2.005   0.534   5.228 -0.0786 -1.3272 -0.4964
 5784WAT     H217755   2.025   0.600   5.094 -0.0974 -0.2748  0.0108
 5785WAT      O17756   4.518   4.151   4.592 -0.3686  1.2221 -0.3936
 5785WAT     H117757   4.587   4.124   4.653 -0.8070  1.5126  0.2383
 5785WAT     H217758   4.514   4.080   4.527 -0.2745  0.6375  0.2273
 5786WAT      O17759   3.621   5.986   1.064  0.7538 -0.3524 -0.2919
 5786WAT     H117760   3.706   5.976   1.021  0.0283  2.6404 -2.7545
 5786WAT     H217761   3.558   5.961   0.997 -0.4118 -1.0926  1.0212
 5787WAT      O17762   3.084   6.691   1.298 -0.5105  0.0070 -0.1156
 5787WAT     H117763   3.080   6.648   1.384  0.8719 -1.7494 -0.8636
 5787WAT     H217764   3.169   6.735   1.298  0.2607 -1.3915 -1.1402
 5788WAT      O17765   4.675   1.437   5.910  0.0552  0.0341  0.1935
 5788WAT     H117766   4.676   1.479   5.824  1.0174 -0.2374  0.0567
 5788WAT     H217767   4.758   1.388   5.913  0.3331  0.5521  1.5213
 5789WAT      O17768   4.321   1.403   0.273  0.1211 -0.2631  0.6446
 5789WAT     H117769   4.346   1.314   0.297  0.5174  0.1369  1.7775
 5789WAT     H217770   4.284   1.440   0.353 -0.5197  0.4325  0.0509
 5790WAT      O17771   4.822   1.943   5.744  0.1902 -0.8647 -0.1444
 5790WAT     H117772   4.878   2.004   5.696 -0.1035 -0.3278  0.1763
 5790WAT     H217773   4.794   1.993   5.821  0.3349 -1.5802  0.3749
 5791WAT      O17774   6.533   5.725   3.724  0.0937 -0.6379  0.3860
 5791WAT     H117775   6.494   5.645   3.759 -0.8270 -0.2578  0.2593
 5791WAT     H217776   6.459   5.786   3.714  1.1237  1.3307  3.3820
 5792WAT      O17777   5.462   2.012   4.172  0.3531  0.8455 -0.2433
 5792WAT     H117778   5.470   1.927   4.215 -1.1296  0.5379 -0.5117
 5792WAT     H217779   5.508   2.073   4.230  1.8461 -0.1874 -0.2819
 5793WAT      O17780   7.392   3.649   0.413 -0.0952  0.4912  0.5627
 5793WAT     H117781   7.315   3.605   0.450 -1.2045  1.2383 -0.7360
 5793WAT     H217782   7.424   3.705   0.483 -0.6722  0.0815  1.1637
 5794WAT      O17783   6.390   3.044   6.163 -0.4993 -0.0495 -0.0099
 5794WAT     H117784   6.337   3.117   6.193 -0.6901  0.1946 -0.9199
 5794WAT     H217785   6.351   2.967   6.205 -0.5429  0.3129  0.6291
 5795WAT      O17786   7.092   5.278   4.756  0.4625  0.4961  0.4619
 5795WAT     H117787   7.121   5.199   4.710  0.7308  0.3862  0.8156
 5795WAT     H217788   7.100   5.257   4.849  3.1203  1.8117  0.6334
 5796WAT      O17789   2.529   1.690   3.735 -0.5548 -0.3628  0.5346
 5796WAT     H117790   2.494   1.637   3.807 -0.4790  0.3720  1.1298
 5796WAT     H217791   2.616   1.715   3.764  0.1676 -1.4777 -0.5765
 5797WAT      O17792   0.893   0.521   0.978 -0.2414  0.3323 -0.3867
 5797WAT     H117793   0.978   0.529   0.935  0.2239  2.0883  0.7406
 5797WAT     H217794   0.908   0.554   1.067 -2.3389  1.7884 -0.5014
 5798WAT      O17795   7.220   0.082   0.016  0.2958 -0.5227  0.1980
 5798WAT     H117796   7.126   0.065   0.007  0.2580 -0.7391  0.9686
 5798WAT     H217797   7.233   0.093   0.110  0.6464  1.8324 -0.0820
 5799WAT      O17798   3.637   0.581   6.127  0.0124  0.2975 -0.5052
 5799WAT     H117799   3.721   0.617   6.100 -0.4758  1.6996 -0.2658
 5799WAT     H217800   3.652   0.547   6.215  0.5683 -0.4270 -0.8707
 5800WAT      O17801   6.138   2.919   5.502  0.2734 -0.2671 -0.0947
 5800WAT     H117802   6.054   2.875   5.514 -0.4526  0.3679 -2.3021
 5800WAT     H217803   6.203   2.851   5.517 -0.7152 -1.2456 -0.1016
 5801WAT      O17804   6.078   4.575   6.252  0.0426  0.1190  0.2636
 5801WAT     H117805   6.144   4.541   6.192  0.8272  0.0943  1.1182
 5801WAT     H217806   6.106   4.665   6.271  0.3543 -0.1919  1.3486
 5802WAT      O17807   5.513   6.950   1.897 -0.0018 -0.2830 -0.3647
 5802WAT     H117808   5.578   6.906   1.952  0.2684 -0.8900 -1.1538
 5802WAT     H217809   5.495   7.033   1.943  0.5602 -0.5669  0.3871
 5803WAT      O17810   0.217   3.758   3.719  0.8048 -0.4205 -0.0063
 5803WAT     H117811   0.198   3.780   3.811 -1.2487  2.3534 -0.9699
 5803WAT     H217812   0.308   3.784   3.707  0.4068  1.4625  0.6977
 5804WAT      O17813   2.369   6.419   1.591  0.5678 -0.3926 -0.0531
 5804WAT     H117814   2.462   6.439   1.602  0.2900  1.3932 -0.7035
 5804WAT     H217815   2.337   6.406   1.680  1.4401 -1.0810  0.1731
 5805WAT      O17816   3.448   3.055   2.921 -0.4538  0.1672 -0.5709
 5805WAT     H117817   3.357   3.047   2.891  0.0311 -0.0294 -2.0888
 5805WAT     H217818   3.448   3.018   3.009 -1.7716 -0.1695 -0.6920
 5806WAT      O17819   5.708   6.877   5.481 -0.7311 -0.0483  0.5961
 5806WAT     H117820   5.785   6.928   5.456 -0.6672  0.1544  1.2039
 5806WAT     H217821   5.743   6.791   5.506 -0.4051  0.7344  3.1188
 5807WAT      O17822   0.734   2.333   4.099  0.2026 -0.3762  0.0663
 5807WAT     H117823   0.731   2.311   4.192 -1.2698  0.8617  0.3536
 5807WAT     H217824   0.692   2.259   4.055  1.0015 -1.0169  0.3491
 5808WAT      O17825   6.619   1.914   4.663  0.1560  1.2092 -0.5460
 5808WAT     H117826   6.612   1.842   4.724 -1.3168  1.8695  0.1201
 5808WAT     H217827   6.713   1.929   4.652  0.4639 -0.4871 -0.3566
 5809WAT      O17828   5.575   6.834   5.134  0.2253 -0.3300  0.0656
 5809WAT     H117829   5.487   6.863   5.156  0.2193 -1.2588  1.3840
 5809WAT     H217830   5.597   6.882   5.054  0.2677  3.3498  2.0622
 5810WAT      O17831   0.881   3.005   1.470 -0.3102 -0.5688 -1.1959
 5810WAT     H117832   0.800   3.046   1.439 -1.8459 -2.0211  0.5981
 5810WAT     H217833   0.926   3.074   1.518 -0.6186  0.1906 -1.9648
 5811WAT      O17834   4.267   6.804   2.758  0.9156  0.8161 -0.1680
 5811WAT     H117835   4.282   6.711   2.777  1.2335  0.6515 -1.1670
 5811WAT     H217836   4.216   6.835   2.832 -2.2001 -0.9798 -1.3668
 5812WAT      O17837   2.579   7.163   4.965  0.7340 -0.0143  0.2319
 5812WAT     H117838   2.538   7.168   5.051  1.8451 -0.6065  0.8240
 5812WAT     H217839   2.558   7.075   4.933 -1.9574  1.0676 -1.3511
 5813WAT      O17840   2.112   3.198   3.270 -0.4715 -0.1905 -0.5443
 5813WAT     H117841   2.126   3.241   3.186 -2.2358 -1.1865 -1.4082
 5813WAT     H217842   2.198   3.168   3.297  0.4628  1.9750 -0.9444
 5814WAT      O17843   1.025   4.238   1.277  0.3282  0.5201 -0.0663
 5814WAT     H117844   1.109   4.248   1.322 -0.0990  2.2986  0.4296
 5814WAT     H217845   0.961   4.225   1.347  0.2639 -1.8492 -0.4888
 5815WAT      O17846   4.269   7.159   2.695  0.0954 -0.3060 -0.0020
 5815WAT     H117847   4.290   7.117   2.779  0.7156 -0.5848 -0.2916
 5815WAT     H217848   4.349   7.150   2.643 -0.7915 -1.5510 -1.2144
 5816WAT      O17849   4.298   7.069   2.964 -0.3051 -0.4379 -0.2417
 5816WAT     H117850   4.233   6.999   2.972 -0.3287 -0.2657  1.5455
 5816WAT     H217851   4.368   7.043   3.025 -0.9090  1.6684  1.4686
 5817WAT      O17852   4.491   3.535   3.760  0.6848 -0.1148 -0.1175
 5817WAT     H117853   4.473   3.450   3.721  1.2951 -0.0008 -0.6607
 5817WAT     H217854   4.465   3.598   3.693  0.5034  0.1221  0.1724
 5818WAT      O17855   0.135   3.525   1.458  0.0749 -0.3074  0.3578
 5818WAT     H117856   0.056   3.574   1.481  0.7454  0.9512  0.1161
 5818WAT     H217857   0.124   3.505   1.365  1.2529  2.4365 -0.4878
 5819WAT      O17858   1.998   6.417   0.752 -0.4991 -0.1573 -0.1896
 5819WAT     H117859   2.015   6.419   0.847  0.0122 -0.4220 -0.2734
 5819WAT     H217860   2.047   6.492   0.718  1.7170 -1.6765 -0.6106
 5820WAT      O17861   3.027   4.119   0.057  0.1913 -0.1901  0.1723
 5820WAT     H117862   3.081   4.060   0.005  0.5676  0.6308 -0.3783
 5820WAT     H217863   3.083   4.143   0.131  0.8518  1.1929 -0.7499
 5821WAT      O17864   2.155   6.701   2.921 -0.3188 -0.1689  0.2026
 5821WAT     H117865   2.225   6.704   2.986 -1.2251 -1.1232  1.2649
 5821WAT     H217866   2.146   6.792   2.891  1.6166 -0.0782 -0.2861
 5822WAT      O17867   1.229   2.365   4.889 -0.4500  0.2706 -0.1497
 5822WAT     H117868   1.137   2.363   4.865 -0.7649 -4.8264  0.4974
 5822WAT     H217869   1.229   2.391   4.981 -1.1313  0.8141 -0.2937
 5823WAT      O17870   1.729   2.590   0.420 -0.3975  0.1434  0.1735
 5823WAT     H117871   1.659   2.530   0.394 -0.3659  1.2267 -2.7523
 5823WAT     H217872   1.687   2.676   0.423  0.2790  0.4634  0.9873
 5824WAT      O17873   6.369   5.734   5.648 -0.2700  0.6834  0.2671
 5824WAT     H117874   6.454   5.706   5.682 -0.4000 -1.5053 -1.0103
 5824WAT     H217875   6.375   5.718   5.554 -2.5601 -0.9819  0.3194
 5825WAT      O17876   5.811   1.629   4.701  1.0962  0.1222 -0.1710
 5825WAT     H117877   5.901   1.597   4.707  1.0453 -0.0315 -0.2324
 5825WAT     H217878   5.781   1.633   4.792  1.1480  0.1265 -0.1541
 5826WAT      O17879   1.087   3.993   4.434  0.1133  0.0980 -0.1017
 5826WAT     H117880   1.076   3.903   4.403  1.0844 -0.1754  0.3234
 5826WAT     H217881   1.007   4.009   4.485 -0.2484 -0.3811 -0.4945
 5827WAT      O17882   0.357   5.482   0.017 -0.8862  0.2787  0.6767
 5827WAT     H117883   0.342   5.394   0.051 -0.7572  0.5190  1.3769
 5827WAT     H217884   0.291   5.536   0.061 -1.5320  0.3924 -0.3956
 5828WAT      O17885   2.123   3.237   4.635  0.8119  0.4793 -0.3123
 5828WAT     H117886   2.029   3.254   4.625  1.0494  3.3586  1.2293
 5828WAT     H217887   2.166   3.309   4.590  2.2299  0.1296  0.4150
 5829WAT      O17888   2.259   4.578   5.785 -0.5263  0.4141  0.1230
 5829WAT     H117889   2.186   4.517   5.791 -0.1390 -0.1892 -1.0264
 5829WAT     H217890   2.336   4.525   5.808  0.1278 -0.2378 -3.1749
 5830WAT      O17891   1.875   2.857   0.134  0.4937 -0.0634 -0.0687
 5830WAT     H117892   1.892   2.908   0.213 -0.0148 -0.7033  0.4540
 5830WAT     H217893   1.886   2.921   0.063  0.0809  0.7279  0.5629
 5831WAT      O17894   1.675   1.270   4.002 -0.2667 -0.1607 -0.5580
 5831WAT     H117895   1.587   1.306   4.013  0.2628  0.4783  2.0352
 5831WAT     H217896   1.663   1.175   4.008 -0.7006 -0.0448  0.5645
 5832WAT      O17897   0.028   4.207   3.514  0.1947 -0.2275  0.2429
 5832WAT     H117898  -0.063   4.218   3.544 -0.9389 -2.3251 -2.0587
 5832WAT     H217899   0.051   4.118   3.541  2.3669  0.9073  2.4698
 5833WAT      O17900   1.697   0.580   0.519  0.4446  0.1570  0.4365
 5833WAT     H117901   1.745   0.583   0.602 -0.0040 -1.2271  0.7757
 5833WAT     H217902   1.693   0.487   0.497 -0.8206  0.3635 -0.3139
 5834WAT      O17903   1.080   0.066   1.871 -0.4923 -0.8594  0.3745
 5834WAT     H117904   1.024   0.002   1.917 -0.1457 -0.2086  1.7444
 5834WAT     H217905   1.169   0.044   1.899 -0.3028 -0.2495  0.2598
 5835WAT      O17906   1.692   5.079   5.446  0.9884 -0.5018 -0.3881
 5835WAT     H117907   1.630   5.037   5.386 -0.5420 -1.2417  1.6058
 5835WAT     H217908   1.673   5.172   5.439 -0.2042 -0.6970 -0.0153
 5836WAT      O17909   5.140   3.322   0.479 -0.1577  0.4465 -0.3461
 5836WAT     H117910   5.052   3.337   0.444 -0.7275 -0.6195  0.5525
 5836WAT     H217911   5.154   3.392   0.543  0.1701  1.3464 -1.3699
 5837WAT      O17912   2.231   1.612   5.020 -0.2294 -0.0036 -0.1362
 5837WAT     H117913   2.266   1.700   5.036 -2.6665  0.9807  0.2434
 5837WAT     H217914   2.229   1.604   4.925  0.9810 -0.1199 -0.1747
 5838WAT      O17915   2.839   1.173   5.089 -0.3700  0.3303 -0.1141
 5838WAT     H117916   2.748   1.163   5.117  0.5842 -0.8149  2.9660
 5838WAT     H217917   2.874   1.085   5.091  1.3167  0.9806  0.7843
 5839WAT      O17918   3.922   2.298   2.033  0.3335  0.5462 -0.1063
 5839WAT     H117919   3.873   2.362   1.981  1.2387  0.8395 -0.6133
 5839WAT     H217920   3.958   2.349   2.106 -0.7464  0.1781  0.7174
 5840WAT      O17921   1.096   3.270   0.667  0.3288 -0.2353  0.0816
 5840WAT     H117922   1.149   3.346   0.691  1.0963 -0.5537 -0.5591
 5840WAT     H217923   1.037   3.257   0.741 -0.2017  1.3178 -0.0294
 5841WAT      O17924   6.068   6.629   6.155 -0.1993 -0.2453  0.2496
 5841WAT     H117925   6.059   6.676   6.238  2.2526  1.4991 -0.3365
 5841WAT     H217926   5.979   6.612   6.126 -1.2069  2.5532  1.3960
 5842WAT      O17927   1.774   0.729   2.202  0.8426  0.2991  0.3422
 5842WAT     H117928   1.805   0.751   2.289 -0.9946  1.4323  0.7808
 5842WAT     H217929   1.678   0.733   2.210  0.6331  1.5905 -1.9795
 5843WAT      O17930   1.276   1.026   5.024  0.1243  0.3073  0.1523
 5843WAT     H117931   1.313   1.106   4.986 -0.7808  0.0970 -1.2377
 5843WAT     H217932   1.182   1.032   5.006  0.0487 -1.0995 -0.0520
 5844WAT      O17933   0.863   7.073   4.751  0.5790  0.2187 -0.1140
 5844WAT     H117934   0.902   7.123   4.680  0.9890  2.1338  1.3736
 5844WAT     H217935   0.814   7.137   4.803  2.7413 -0.4100  3.0216
 5845WAT      O17936   6.170   1.556   0.149  0.6674  0.0442 -0.6528
 5845WAT     H117937   6.207   1.644   0.146  0.2191  0.2324 -3.5115
 5845WAT     H217938   6.245   1.499   0.168  0.8681  1.0069  1.7642
 5846WAT      O17939   6.897   3.154   6.068 -0.1495  0.7366 -0.0565
 5846WAT     H117940   6.978   3.174   6.021  0.0577 -0.8012 -0.4015
 5846WAT     H217941   6.917   3.173   6.160  0.9132 -0.4502 -0.0116
 5847WAT      O17942   5.419   4.592   5.023 -0.2940 -0.4566 -0.3653
 5847WAT     H117943   5.352   4.527   4.998 -0.0952 -0.1948 -1.6371
 5847WAT     H217944   5.410   4.662   4.958  1.4067 -0.5570 -0.7469
 5848WAT      O17945   4.297   3.729   5.185  0.1100 -0.0843  0.0983
 5848WAT     H117946   4.352   3.676   5.242  1.4624 -0.1966 -1.2413
 5848WAT     H217947   4.224   3.671   5.160  1.7691 -1.5441 -1.6573
 5849WAT      O17948   0.977   2.600   5.180 -0.5352 -0.2429  0.3873
 5849WAT     H117949   0.987   2.672   5.241 -2.4029  0.6775 -0.3105
 5849WAT     H217950   1.011   2.634   5.097  1.3800 -1.2586  0.6935
 5850WAT      O17951   2.283   3.877   6.134  0.0586 -0.1234  0.3283
 5850WAT     H117952   2.321   3.876   6.046 -1.2994 -0.0701 -0.2776
 5850WAT     H217953   2.193   3.849   6.122 -0.1439 -0.1582  1.7259
 5851WAT      O17954   7.410   4.847   4.394 -0.0478 -0.1595  0.4133
 5851WAT     H117955   7.316   4.836   4.406 -0.2309  0.5345 -0.3452
 5851WAT     H217956   7.420   4.928   4.345  0.7944 -1.3369 -1.5254
 5852WAT      O17957   5.886   0.273   5.756 -0.3584  0.1754  0.5723
 5852WAT     H117958   5.836   0.259   5.836  0.5370 -0.6406  1.0106
 5852WAT     H217959   5.969   0.228   5.771  0.2865  0.9941 -0.3633
 5853WAT      O17960   3.797   0.866   3.399 -0.1196  0.2916 -0.1718
 5853WAT     H117961   3.804   0.907   3.485 -1.4212 -0.3756  0.2651
 5853WAT     H217962   3.758   0.780   3.415 -0.0168 -0.0082 -1.3852
 5854WAT      O17963   4.855   4.067   6.169  0.0582 -0.0442  0.5369
 5854WAT     H117964   4.843   4.041   6.261  0.9462 -0.8072  0.4465
 5854WAT     H217965   4.948   4.054   6.152  0.0000  0.5946 -0.3313
 5855WAT      O17966   6.865   4.214   5.246 -0.1531 -0.1920 -0.6768
 5855WAT     H117967   6.786   4.268   5.241 -0.3163 -0.2982  0.5024
 5855WAT     H217968   6.844   4.146   5.310  1.2489  0.4284  0.5131
 5856WAT      O17969   4.201   4.684   5.384 -0.2931 -0.0163  0.3091
 5856WAT     H117970   4.162   4.600   5.359  0.5077  0.2878 -2.2867
 5856WAT     H217971   4.294   4.673   5.367  0.3441  0.4470  2.9773
 5857WAT      O17972   0.213   6.893   4.108  0.3184 -0.1283  0.2792
 5857WAT     H117973   0.138   6.924   4.058  0.7815 -0.7630 -0.8407
 5857WAT     H217974   0.256   6.972   4.139  2.1915  0.5536 -3.5459
 5858WAT      O17975   1.807   6.087   0.951 -0.3430 -0.2323 -0.2774
 5858WAT     H117976   1.808   5.994   0.932 -0.0825 -0.2135 -0.3643
 5858WAT     H217977   1.798   6.093   1.046 -1.3480 -0.3317 -0.3489
 5859WAT      O17978   1.233   0.336   6.222  0.1731 -0.0404 -0.3177
 5859WAT     H117979   1.281   0.318   6.303  0.2424  0.2254 -0.2976
 5859WAT     H217980   1.154   0.382   6.251  0.0475 -0.2204 -0.3748
 5860WAT      O17981   7.091   2.705   2.639  0.0526 -0.3006  0.1367
 5860WAT     H117982   7.153   2.672   2.704  0.4508  0.0657 -0.0546
 5860WAT     H217983   7.058   2.787   2.677 -0.8964 -0.8771  0.5889
 5861WAT      O17984   1.672   0.223   3.454  0.1762 -0.5290 -0.0013
 5861WAT     H117985   1.635   0.160   3.391  1.3199 -1.8984  0.6419
 5861WAT     H217986   1.641   0.193   3.539  1.9931 -1.2244  0.4733
 5862WAT      O17987   7.502   4.135   1.959 -0.8208  0.6977  0.5387
 5862WAT     H117988   7.488   4.155   2.052 -1.0447  0.5024  0.5454
 5862WAT     H217989   7.477   4.043   1.950 -1.1280  0.8154  0.2104
 5863WAT      O17990   2.264   5.043   4.456 -0.0640  0.1664 -0.6236
 5863WAT     H117991   2.254   5.053   4.361 -0.5617 -2.6563 -0.9547
 5863WAT     H217992   2.194   5.096   4.493 -1.2524 -0.4058 -1.9456
 5864WAT      O17993   3.777   3.825   6.021  0.2684  0.6788  0.6676
 5864WAT     H117994   3.702   3.769   6.041  0.5760 -0.1498 -0.3945
 5864WAT     H217995   3.849   3.787   6.071  0.0114  1.4457  1.6488
 5865WAT      O17996   7.370   3.466   4.823 -0.1752  0.3679 -0.4173
 5865WAT     H117997   7.329   3.399   4.768 -1.1180 -0.4914  1.2175
 5865WAT     H217998   7.296   3.504   4.872  0.7206  0.2860  1.0581
 5866WAT      O17999   6.424   1.237   3.613  0.1540 -0.1310 -0.0402
 5866WAT     H118000   6.347   1.248   3.668  0.1289 -2.9444  0.6433
 5866WAT     H218001   6.496   1.275   3.664 -0.5117  1.2480 -0.0754
 5867WAT      O18002   6.806   6.581   2.829 -0.4001  0.4979  0.0946
 5867WAT     H118003   6.788   6.512   2.893 -1.1559  0.0892 -0.5542
 5867WAT     H218004   6.730   6.639   2.835 -1.4561 -0.6087 -1.8234
 5868WAT      O18005   5.848   7.026   4.268 -0.3318  0.1382  0.3944
 5868WAT     H118006   5.803   6.959   4.320 -0.4666 -0.9776 -1.0849
 5868WAT     H218007   5.812   7.109   4.300 -1.1588 -0.5645  1.3640
 5869WAT      O18008   2.397   4.598   1.405 -0.1661 -0.4143  0.5718
 5869WAT     H118009   2.421   4.537   1.476 -0.0718  0.1134  0.9979
 5869WAT     H218010   2.358   4.673   1.450  1.8858  0.9266  0.2656
 5870WAT      O18011   7.283   4.389   5.898  0.7716  0.5931  0.5675
 5870WAT     H118012   7.298   4.469   5.848 -0.4158  2.0935  2.4826
 5870WAT     H218013   7.202   4.352   5.862  3.2976 -2.1386 -3.0746
 5871WAT      O18014   1.678   2.423   2.069 -0.0532 -0.0490 -0.4605
 5871WAT     H118015   1.756   2.478   2.061 -0.0832  0.4428  1.7926
 5871WAT     H218016   1.607   2.486   2.084 -0.4546 -0.6039 -0.0023
 5872WAT      O18017   6.057   5.338   4.563 -0.0069 -0.0407 -0.8918
 5872WAT     H118018   6.075   5.400   4.492 -0.5828  0.1182 -0.9018
 5872WAT     H218019   6.104   5.374   4.638 -0.0677  0.2269 -0.9824
 5873WAT      O18020   5.362   3.482   2.327  0.0282 -0.0381  0.0650
 5873WAT     H118021   5.331   3.469   2.238 -0.2986 -2.1733  0.4260
 5873WAT     H218022   5.282   3.495   2.378  0.1423  0.2763  0.1615
 5874WAT      O18023   4.364   5.728   4.690 -0.1208  0.6836 -0.2048
 5874WAT     H118024   4.387   5.771   4.772 -1.5396  2.4473 -0.6789
 5874WAT     H218025   4.291   5.669   4.714  0.6293 -0.1471  0.0996
 5875WAT      O18026   2.079   1.993   4.013 -0.1522 -0.2037  0.0037
 5875WAT     H118027   2.108   1.937   4.086 -0.7228  0.8782  1.1000
 5875WAT     H218028   2.124   2.076   4.029 -2.3989  0.9429  0.7282
 5876WAT      O18029   3.023   4.458   1.018 -0.4770 -0.0053 -0.5268
 5876WAT     H118030   3.102   4.419   0.979 -0.2223  2.7540 -3.2396
 5876WAT     H218031   3.057   4.518   1.085 -0.2224  0.7936 -1.3378
 5877WAT      O18032   3.080   6.947   0.381 -0.0319  0.1168  0.3945
 5877WAT     H118033   3.093   7.042   0.373  0.6360  0.0078  0.1464
 5877WAT     H218034   2.985   6.936   0.382 -0.1147  0.8166  0.7409
 5878WAT      O18035   3.482   1.696   0.021  0.0746 -0.3796  0.2059
 5878WAT     H118036   3.413   1.709   0.086 -0.9399  0.7235 -0.9993
 5878WAT     H218037   3.557   1.743   0.055 -0.8168  1.2195  0.0733
 5879WAT      O18038   7.088   6.104   2.017 -0.0749  0.0455  0.0535
 5879WAT     H118039   7.134   6.035   1.971 -0.4037 -0.5933  0.6730
 5879WAT     H218040   7.013   6.125   1.961 -0.8454 -1.1865  0.5814
 5880WAT      O18041   5.888   0.843   3.040 -0.1806 -0.6634 -0.1249
 5880WAT     H118042   5.939   0.787   3.099 -1.9386  0.1345  2.3054
 5880WAT     H218043   5.930   0.929   3.048 -1.0773 -0.2989  0.8916
 5881WAT      O18044   0.185   5.078   2.228  0.1618 -0.0218 -0.4532
 5881WAT     H118045   0.247   5.006   2.233  0.4025  0.1597 -0.7868
 5881WAT     H218046   0.101   5.039   2.252  0.5955 -0.0077  1.2136
 5882WAT      O18047   3.717   1.362   4.695 -0.0404 -0.0185  0.1907
 5882WAT     H118048   3.700   1.451   4.724  0.3494  0.3972 -0.8101
 5882WAT     H218049   3.787   1.371   4.630  1.1384 -1.2300  1.2557
 5883WAT      O18050   2.385   1.194   2.539 -0.1103 -0.1593  0.1469
 5883WAT     H118051   2.340   1.140   2.475  1.2685  0.6319 -1.5695
 5883WAT     H218052   2.478   1.183   2.520  0.2550  2.1126  0.2797
 5884WAT      O18053   0.663   3.205   6.207 -0.5744  0.3522 -0.2387
 5884WAT     H118054   0.581   3.221   6.254 -0.9938 -1.4857 -0.2540
 5884WAT     H218055   0.730   3.248   6.260 -1.2479 -0.2166  1.1298
 5885WAT      O18056   1.849   1.372   0.811  0.1617 -0.0344 -0.0867
 5885WAT     H118057   1.844   1.322   0.730  0.4362 -0.9998  0.4735
 5885WAT     H218058   1.853   1.463   0.783  1.4770 -0.4005 -1.2155
 5886WAT      O18059   3.172   2.426   0.668  0.0914 -0.4198  0.7017
 5886WAT     H118060   3.217   2.365   0.727 -0.7043 -1.6494  0.0787
 5886WAT     H218061   3.116   2.478   0.726  0.1584 -0.8422  1.1511
 5887WAT      O18062   1.592   6.815   4.090 -0.4662 -0.2883  0.2073
 5887WAT     H118063   1.604   6.903   4.126  0.7457 -0.4137  0.1716
 5887WAT     H218064   1.587   6.828   3.995  2.4331 -0.4247 -0.0559
 5888WAT      O18065   7.329   5.478   2.509 -0.2454 -0.2656 -0.3557
 5888WAT     H118066   7.330   5.544   2.578  0.8450 -1.1041  0.4865
 5888WAT     H218067   7.262   5.415   2.538  0.3517 -0.7209  0.0633
 5889WAT      O18068   5.508   2.080   3.176 -0.0194  0.0877  0.0145
 5889WAT     H118069   5.477   2.053   3.262  1.8441 -1.1396  0.3575
 5889WAT     H218070   5.462   2.162   3.158 -1.0778 -0.0751  1.7802
 5890WAT      O18071   2.034   1.750   2.240  0.2523 -0.1293  0.3128
 5890WAT     H118072   2.040   1.841   2.268  1.1404 -0.5390  1.4960
 5890WAT     H218073   2.029   1.700   2.321  1.7834 -1.2719 -0.2645
 5891WAT      O18074   1.808   5.956   4.338  0.4369  0.5876 -0.5511
 5891WAT     H118075   1.822   5.882   4.279  0.7993 -0.0533  0.3152
 5891WAT     H218076   1.896   5.993   4.350  0.3584  0.7389 -0.4510
 5892WAT      O18077   0.660   4.783   5.509  0.4035  0.3891 -0.3783
 5892WAT     H118078   0.753   4.798   5.494  0.0952  1.8677 -1.0580
 5892WAT     H218079   0.649   4.790   5.604  0.9882  0.1702 -0.2917
 5893WAT      O18080   6.441   6.918   3.676 -0.1098  0.2589  0.2948
 5893WAT     H118081   6.425   6.968   3.756 -1.2803 -0.9385  0.8472
 5893WAT     H218082   6.511   6.966   3.631 -2.3141  3.4310 -0.1183
 5894WAT      O18083   7.304   5.715   1.462  0.7909  0.1290 -0.2388
 5894WAT     H118084   7.337   5.739   1.549  0.9443 -0.9456  0.0125
 5894WAT     H218085   7.213   5.690   1.477  0.5590  0.7688 -0.5383
 5895WAT      O18086   4.154   5.963   1.502 -0.2624 -0.2933 -0.8035
 5895WAT     H118087   4.076   6.018   1.496  0.3149  0.7771  0.8508
 5895WAT     H218088   4.218   6.017   1.548  1.5318 -1.0790 -2.2513
 5896WAT      O18089   0.222   5.143   4.312  0.6433  0.3922  0.1723
 5896WAT     H118090   0.181   5.224   4.281  1.0022  0.6461  0.3454
 5896WAT     H218091   0.149   5.086   4.335  0.3816  0.4897 -0.3993
 5897WAT      O18092   6.896   3.643   5.437  0.0474  0.2226  0.5779
 5897WAT     H118093   6.840   3.696   5.380 -0.5381  0.6236  1.4830
 5897WAT     H218094   6.903   3.695   5.518  1.0550 -0.2087  0.7799
 5898WAT      O18095   6.503   7.202   5.385  0.8238  0.0771 -0.1904
 5898WAT     H118096   6.416   7.230   5.357  0.3347  1.3302  2.3315
 5898WAT     H218097   6.509   7.230   5.476  4.0039  0.3245 -0.3744
 5899WAT      O18098   1.129   0.346   1.858  0.0688  0.5893  0.3585
 5899WAT     H118099   1.079   0.264   1.856  0.2644  0.4770  0.0788
 5899WAT     H218100   1.151   0.359   1.950  1.1552 -0.3479  0.2499
 5900WAT      O18101   5.717   2.523   3.716  0.4857  1.0971  0.4246
 5900WAT     H118102   5.644   2.488   3.768  0.4129  1.4943  0.5931
 5900WAT     H218103   5.763   2.582   3.775  0.6278  1.2596  0.1562
 5901WAT      O18104   2.210   6.461   4.768 -0.1251 -0.1424 -0.3007
 5901WAT     H118105   2.218   6.462   4.863 -0.6047  0.2606 -0.2564
 5901WAT     H218106   2.118   6.483   4.751 -0.1098 -0.4692 -0.8490
 5902WAT      O18107   3.157   0.980   3.755  0.1984  0.8824 -0.3114
 5902WAT     H118108   3.208   0.990   3.675 -0.7913 -1.1012 -1.2756
 5902WAT     H218109   3.191   0.899   3.795 -0.3316  1.0339  0.4688
 5903WAT      O18110   0.106   1.823   0.871  0.0450 -0.0027 -0.4130
 5903WAT     H118111   0.067   1.839   0.956  1.2515 -1.6365  0.5148
 5903WAT     H218112   0.033   1.795   0.815 -0.3282 -2.2280  1.0511
 5904WAT      O18113   4.368   4.627   2.946  0.6691  0.1953  0.0450
 5904WAT     H118114   4.431   4.557   2.929 -1.7514 -1.9832 -0.5287
 5904WAT     H218115   4.369   4.638   3.041  1.3958 -0.3025  0.1008
 5905WAT      O18116   6.345   5.883   3.424  0.5012 -0.2727  0.2488
 5905WAT     H118117   6.325   5.945   3.494  0.4182 -2.8020  2.6724
 5905WAT     H218118   6.262   5.842   3.402  0.6064  0.1589 -1.0547
 5906WAT      O18119   1.534   3.773   3.644  0.6702 -0.6025  0.3664
 5906WAT     H118120   1.462   3.835   3.640  1.5074  0.5598  1.9773
 5906WAT     H218121   1.492   3.688   3.656 -0.4519 -0.0188  0.7111
 5907WAT      O18122   4.772   0.245   1.860 -0.1349  0.5073  0.5854
 5907WAT     H118123   4.821   0.239   1.778  1.8762 -0.7906  1.7691
 5907WAT     H218124   4.718   0.166   1.861 -1.2748  1.2589 -0.1140
 5908WAT      O18125   0.236   3.117   1.013  0.1494 -0.2451  0.1680
 5908WAT     H118126   0.166   3.152   0.958 -0.0141  1.0457  1.1749
 5908WAT     H218127   0.191   3.081   1.089  0.5999  1.6207  1.3799
 5909WAT      O18128   0.974   0.114   2.173  0.2418 -0.5841 -0.0741
 5909WAT     H118129   1.011   0.115   2.261 -0.2756  0.4249  0.1408
 5909WAT     H218130   1.010   0.192   2.130 -2.9907  1.5277  0.7545
 5910WAT      O18131   1.062   5.836   0.544  0.2962 -0.2092  0.3172
 5910WAT     H118132   0.969   5.856   0.557  0.1552  0.5059 -1.5357
 5910WAT     H218133   1.101   5.845   0.631 -0.7748  2.7861  0.5994
 5911WAT      O18134   7.154   6.021   0.061  0.4433  0.2021 -0.0986
 5911WAT     H118135   7.124   6.006   0.150  0.8797 -0.7918 -0.1046
 5911WAT     H218136   7.093   6.086   0.025  0.5927  1.0249  1.0857
 5912WAT      O18137   5.390   2.292   3.114 -0.2841 -0.0896 -0.2259
 5912WAT     H118138   5.299   2.319   3.128 -0.0670  0.4444  0.2094
 5912WAT     H218139   5.419   2.344   3.039  0.0794  0.7863  0.5015
 5913WAT      O18140   7.402   6.039   1.215  0.1369 -0.0565 -0.2668
 5913WAT     H118141   7.402   6.032   1.119 -0.0210 -2.6738 -0.1509
 5913WAT     H218142   7.387   5.949   1.245  0.4753  0.6632  2.2371
 5914WAT      O18143   4.885   3.415   0.384  0.6222  0.5877 -0.1828
 5914WAT     H118144   4.868   3.484   0.321  0.9882  1.2081  0.3954
 5914WAT     H218145   4.809   3.417   0.444 -0.4531 -0.9335 -1.3835
 5915WAT      O18146   1.133   7.051   0.993  0.0969 -0.0483 -0.4665
 5915WAT     H118147   1.172   7.088   0.914 -1.1378  0.6541 -0.7792
 5915WAT     H218148   1.152   7.115   1.062  0.0714 -0.0286 -0.4775
 5916WAT      O18149   5.082   4.946   1.637  0.1269  0.1192 -0.6889
 5916WAT     H118150   5.093   4.891   1.715 -0.2539  1.3256  0.2557
 5916WAT     H218151   5.033   5.022   1.669  0.2849  0.8117 -2.0446
 5917WAT      O18152   3.139   2.393   5.102  0.1825 -0.0259 -0.0847
 5917WAT     H118153   3.183   2.474   5.127 -0.7780 -0.5369  3.8990
 5917WAT     H218154   3.205   2.325   5.117 -0.4754 -0.3668  1.4508
 5918WAT      O18155   6.652   3.863   2.624  0.2168 -0.2924  0.1943
 5918WAT     H118156   6.671   3.932   2.561 -0.1550 -0.9929 -0.7007
 5918WAT     H218157   6.683   3.783   2.582 -0.6904 -0.8659  0.5915
 5919WAT      O18158   0.726   2.252   2.037  0.1658  0.3339  0.0264
 5919WAT     H118159   0.798   2.302   2.076  1.3236 -0.5457 -0.9025
 5919WAT     H218160   0.707   2.183   2.101  0.3311  0.4239  0.1716
 5920WAT      O18161   1.984   0.044   0.975  0.2189  0.3378  0.2454
 5920WAT     H118162   1.973   0.032   1.069 -0.5763 -0.7097  0.0354
 5920WAT     H218163   2.058   0.105   0.967  0.6492  0.0103  1.5256
 5921WAT      O18164   2.023   5.440   0.291  0.4724 -0.3647 -0.3523
 5921WAT     H118165   1.947   5.443   0.349 -1.0573 -1.4325 -2.1334
 5921WAT     H218166   2.025   5.526   0.249  0.4971 -0.1862  0.0190
 5922WAT      O18167   1.646   6.515   3.773 -0.1139 -0.0172  0.2495
 5922WAT     H118168   1.629   6.547   3.685 -0.5282  0.7003  0.5880
 5922WAT     H218169   1.561   6.520   3.817  0.1790  0.0054  0.8122
 5923WAT      O18170   3.235   6.138   2.942 -0.3536 -0.2206  0.3401
 5923WAT     H118171   3.286   6.164   3.018 -0.2841  4.7653 -1.0225
 5923WAT     H218172   3.300   6.124   2.873 -0.5711 -1.2470  0.3283
 5924WAT      O18173   0.390   4.379   3.619  0.7378 -0.2123 -0.0361
 5924WAT     H118174   0.339   4.375   3.701 -0.8201 -0.6025 -0.9799
 5924WAT     H218175   0.421   4.469   3.615 -0.7607  0.3405  0.0887
 5925WAT      O18176   6.472   6.884   2.612 -0.3304 -0.1417  0.6808
 5925WAT     H118177   6.384   6.923   2.607 -0.7519 -0.9366  1.5979
 5925WAT     H218178   6.457   6.790   2.607  0.6250 -0.2323 -0.7893
 5926WAT      O18179   0.547   0.403   3.064 -0.1736  0.2464 -0.7098
 5926WAT     H118180   0.557   0.359   2.980  0.0683  1.3415 -1.2749
 5926WAT     H218181   0.493   0.343   3.116 -2.7047  0.7202 -2.5783
 5927WAT      O18182   2.779   2.095   0.834  0.6615  0.0340  0.0471
 5927WAT     H118183   2.794   2.021   0.775 -1.7602 -0.5656  0.0743
 5927WAT     H218184   2.817   2.067   0.918  1.5809 -0.2979 -0.4652
 5928WAT      O18185   3.640   4.780   2.520 -0.4462 -0.8421  0.3554
 5928WAT     H118186   3.696   4.764   2.596 -0.5788 -2.2169  0.1965
 5928WAT     H218187   3.680   4.855   2.476 -0.6082  0.2603  1.9935
 5929WAT      O18188   2.769   3.077   3.114 -0.3527  0.0553 -0.8593
 5929WAT     H118189   2.712   3.015   3.160 -0.4362  0.3145 -0.6129
 5929WAT     H218190   2.729   3.163   3.131 -0.6236  0.1158 -1.7552
 5930WAT      O18191   1.251   2.873   1.668  0.0418 -0.6336  0.3043
 5930WAT     H118192   1.299   2.956   1.673  0.0476 -0.4873 -1.3564
 5930WAT     H218193   1.164   2.894   1.703  0.1390  0.0120  0.1832
 5931WAT      O18194   2.821   2.311   4.594 -0.4342  0.6319 -0.1392
 5931WAT     H118195   2.887   2.367   4.635 -2.1609  2.2493  0.5772
 5931WAT     H218196   2.739   2.360   4.602 -1.3599 -0.2262 -3.0959
 5932WAT      O18197   1.863   3.569   3.792  0.2709 -0.1585  0.2942
 5932WAT     H118198   1.815   3.640   3.835 -1.1746 -1.3383  0.6883
 5932WAT     H218199   1.919   3.533   3.861  0.0450 -0.2381  0.4352
 5933WAT      O18200   0.151   0.077   1.816  0.8785  0.6296  0.4946
 5933WAT     H118201   0.246   0.069   1.815  0.8143 -0.8863  1.7267
 5933WAT     H218202   0.123   0.039   1.732  1.3850  2.2039 -0.4166
 5934WAT      O18203   7.206   5.073   4.608  0.1731 -0.6075 -0.0429
 5934WAT     H118204   7.177   4.988   4.642 -1.6985 -0.2162 -0.5713
 5934WAT     H218205   7.214   5.059   4.513  1.8226 -0.7002  0.0757
 5935WAT      O18206   3.729   5.057   2.525 -0.0805  0.5465 -0.2635
 5935WAT     H118207   3.799   5.102   2.574 -0.2790  0.2612  0.2927
 5935WAT     H218208   3.664   5.036   2.592 -0.0562 -0.4439 -0.5415
 5936WAT      O18209   7.349   5.311   5.163 -0.2476 -0.3250  0.0345
 5936WAT     H118210   7.412   5.351   5.103  1.2378  0.7594  2.1662
 5936WAT     H218211   7.362   5.358   5.246 -2.2003 -1.7220  1.2091
 5937WAT      O18212   1.936   2.160   1.235 -0.2801  0.2622 -0.4065
 5937WAT     H118213   2.023   2.142   1.270 -0.5752  3.3122  2.3983
 5937WAT     H218214   1.879   2.096   1.280  0.2640 -0.7057 -1.0596
 5938WAT      O18215   0.330   6.992   6.089  0.0043  0.6959 -0.5139
 5938WAT     H118216   0.235   6.999   6.083 -0.0156  0.8890  0.0204
 5938WAT     H218217   0.345   6.909   6.135  0.1070  0.4343 -1.0106
 5939WAT      O18218   5.410   3.017   0.536 -0.4393 -0.2566  0.1711
 5939WAT     H118219   5.317   2.999   0.527 -0.1064 -1.2380 -2.0216
 5939WAT     H218220   5.423   3.034   0.630 -2.5915 -1.2862  0.7089
 5940WAT      O18221   0.660   3.045   5.699  0.7302 -0.1928  0.0777
 5940WAT     H118222   0.565   3.047   5.691  0.6115  4.3647  0.0834
 5940WAT     H218223   0.676   3.045   5.794  0.6364  0.5066  0.1025
 5941WAT      O18224   5.208   2.428   2.369  0.7085 -0.0562 -0.0279
 5941WAT     H118225   5.214   2.336   2.342  1.1207  0.1393 -0.6290
 5941WAT     H218226   5.121   2.455   2.340  0.5741 -0.2669  0.1782
 5942WAT      O18227   3.424   7.123   1.994  0.1864  0.3563  0.3176
 5942WAT     H118228   3.442   7.030   2.006 -2.0765 -0.1905  0.0099
 5942WAT     H218229   3.447   7.163   2.078  3.3926 -0.0197 -0.2763
 5943WAT      O18230   7.545   5.250   3.764  0.2424 -0.2305  0.1398
 5943WAT     H118231   7.636   5.220   3.763  1.0615  2.0132  0.1460
 5943WAT     H218232   7.550   5.341   3.795 -2.1666 -0.4416  1.4019
 5944WAT      O18233   1.047   2.270   5.932  0.1551 -0.3786  0.1400
 5944WAT     H118234   1.043   2.202   5.999 -1.2825  0.6451  1.1788
 5944WAT     H218235   1.035   2.352   5.981  3.6672  0.8484 -0.8088
 5945WAT      O18236   0.156   5.220   5.772  0.0503  0.1560 -0.4527
 5945WAT     H118237   0.135   5.156   5.840  0.2275  0.3608 -0.2046
 5945WAT     H218238   0.246   5.200   5.747  0.1357  0.3621 -0.3135
 5946WAT      O18239   0.701   2.538   5.108  0.1662 -0.0860  0.3004
 5946WAT     H118240   0.675   2.475   5.175 -0.2991 -0.1367  0.0791
 5946WAT     H218241   0.796   2.547   5.118  0.2041 -0.6574  0.4722
 5947WAT      O18242   4.143   3.620   1.478  0.5842  0.1092  0.5773
 5947WAT     H118243   4.057   3.625   1.520  0.3432  0.2716  0.0815
 5947WAT     H218244   4.157   3.526   1.464  0.9558 -0.0001  1.5810
 5948WAT      O18245   4.095   3.810   5.408 -0.2820 -0.0337 -0.1939
 5948WAT     H118246   4.142   3.843   5.331  0.1078  0.0554  0.0771
 5948WAT     H218247   4.033   3.746   5.373 -2.0745  1.9873 -0.9130
 5949WAT      O18248   0.017   5.985   2.587  0.0562  0.1329 -0.6518
 5949WAT     H118249  -0.077   5.976   2.578 -0.3428  0.0092  2.6883
 5949WAT     H218250   0.032   6.080   2.587 -0.1504  0.1637 -0.3669
 5950WAT      O18251   5.269   5.750   3.205  0.0031  0.1433  0.1798
 5950WAT     H118252   5.176   5.743   3.224  0.0858 -0.4399  0.3765
 5950WAT     H218253   5.292   5.840   3.229 -0.2274 -0.1018  1.3617
 5951WAT      O18254   2.163   5.627   0.617  0.3319 -0.0569  0.0512
 5951WAT     H118255   2.204   5.541   0.608 -0.0335 -0.2534  0.2317
 5951WAT     H218256   2.206   5.666   0.693  0.8333  0.1179 -0.3156
 5952WAT      O18257   1.743   5.262   1.221 -0.0153  0.1588 -0.0339
 5952WAT     H118258   1.814   5.312   1.261 -0.9948  1.2902  0.3471
 5952WAT     H218259   1.773   5.243   1.133  0.9245  0.2726  0.2560
 5953WAT      O18260   5.680   6.251   0.018 -0.7348 -0.4323  0.1922
 5953WAT     H118261   5.661   6.344   0.033  0.8921 -0.6298  5.1062
 5953WAT     H218262   5.611   6.204   0.064 -0.1594 -1.6201 -0.1270
 5954WAT      O18263   1.145   5.943   2.516  0.5321  0.2230  0.0172
 5954WAT     H118264   1.115   5.856   2.543 -3.2033  1.1046 -0.8118
 5954WAT     H218265   1.151   5.937   2.421  0.8324  0.7297  0.0039
 5955WAT      O18266   1.717   2.635   3.282 -0.0052  0.1124 -0.2329
 5955WAT     H118267   1.798   2.627   3.331  0.0362 -1.4588 -0.5141
 5955WAT     H218268   1.679   2.719   3.311  1.3817  0.5587  0.3631
 5956WAT      O18269   7.424   4.268   3.914 -0.1500 -0.3039 -0.0400
 5956WAT     H118270   7.447   4.191   3.863 -2.2037 -0.7762 -0.3508
 5956WAT     H218271   7.428   4.238   4.005  0.6718 -0.2791 -0.0575
 5957WAT      O18272   7.327   4.873   1.100  0.3694 -0.3735 -0.0412
 5957WAT     H118273   7.340   4.814   1.175  0.0802  1.5071  1.5819
 5957WAT     H218274   7.310   4.959   1.140  1.5006  0.9944 -2.2750
 5958WAT      O18275   0.444   3.814   4.575  0.1793 -0.0301 -0.1653
 5958WAT     H118276   0.529   3.856   4.560 -0.1714  0.8709  0.2621
 5958WAT     H218277   0.465   3.724   4.598  1.0924  0.4315  0.9197
 5959WAT      O18278   3.814   4.304   4.804 -0.1161  0.9644 -0.2160
 5959WAT     H118279   3.721   4.315   4.783 -0.1308 -2.0117 -2.3606
 5959WAT     H218280   3.817   4.305   4.900 -2.6717 -0.5518 -0.0156
 5960WAT      O18281   2.598   4.406   1.879 -0.0673 -0.0988  0.1630
 5960WAT     H118282   2.679   4.373   1.919 -1.5132 -2.0606  1.7262
 5960WAT     H218283   2.601   4.375   1.789  1.1327  0.2731  0.0635
 5961WAT      O18284   4.148   1.392   3.899  0.4545  0.2200 -0.0269
 5961WAT     H118285   4.105   1.351   3.975  0.7889 -0.3754 -0.1514
 5961WAT     H218286   4.170   1.480   3.929  0.3149  0.0932  0.4684
 5962WAT      O18287   7.339   0.064   4.107  0.1907 -0.0927 -0.1620
 5962WAT     H118288   7.401   0.062   4.034  0.4929  1.1725  0.0378
 5962WAT     H218289   7.385   0.020   4.179  0.9241  0.9706  0.0303
 5963WAT      O18290   3.262   5.137   1.735  0.2697  0.2500  0.0257
 5963WAT     H118291   3.218   5.098   1.811 -0.2634 -2.2908 -1.4696
 5963WAT     H218292   3.202   5.206   1.706 -2.5984 -2.6124 -1.4941
 5964WAT      O18293   2.968   1.805   3.068 -0.4555 -0.4775 -0.2380
 5964WAT     H118294   3.057   1.808   3.032 -0.6002  0.4340 -0.5537
 5964WAT     H218295   2.978   1.760   3.151  0.7788  1.7510  0.9458
 5965WAT      O18296   5.144   5.282   1.552  0.2398  0.1802 -0.4638
 5965WAT     H118297   5.078   5.240   1.609 -1.9828  2.6341 -1.0459
 5965WAT     H218298   5.200   5.331   1.612 -0.9200  1.2163 -0.1900
 5966WAT      O18299   1.106   0.779   5.154 -0.7790  0.2730 -0.1644
 5966WAT     H118300   1.020   0.738   5.146 -2.1248  2.9833 -0.6252
 5966WAT     H218301   1.134   0.795   5.064 -1.5438  2.6944 -0.0275
 5967WAT      O18302   2.662   4.749   0.640 -0.1690 -0.1248  0.2298
 5967WAT     H118303   2.656   4.722   0.731  2.3285  0.2761  0.5908
 5967WAT     H218304   2.666   4.667   0.591 -1.8200 -0.3430  0.4068
 5968WAT      O18305   4.283   2.551   3.759 -0.1137  0.2647  0.3678
 5968WAT     H118306   4.260   2.538   3.851  0.0040  0.2707  0.3978
 5968WAT     H218307   4.267   2.467   3.718  1.2797 -0.1792  0.6889
 5969WAT      O18308   4.640   6.721   0.980  0.5727  0.3124 -0.3564
 5969WAT     H118309   4.704   6.790   0.963  1.0015 -0.2274 -0.9651
 5969WAT     H218310   4.603   6.700   0.894 -0.8266  0.9887  0.0382
 5970WAT      O18311   2.752   3.826   1.213 -0.4820  0.2351  0.4180
 5970WAT     H118312   2.689   3.859   1.277  0.4253  0.7435  1.0753
 5970WAT     H218313   2.828   3.802   1.265  0.1847  0.4291 -0.4447
 5971WAT      O18314   2.257   5.471   1.219  0.4749 -0.1283 -0.1285
 5971WAT     H118315   2.314   5.412   1.269 -0.1779 -0.6359  0.0237
 5971WAT     H218316   2.217   5.527   1.285  0.3756 -0.1375 -0.1807
 5972WAT      O18317   7.552   2.331   6.189 -0.2623  0.4136  0.1079
 5972WAT     H118318   7.457   2.336   6.177 -0.2196 -1.0282 -1.1187
 5972WAT     H218319   7.564   2.255   6.246  0.1655  0.7575  0.4845
 5973WAT      O18320   6.837   5.060   0.358 -0.1208  0.0187  0.0077
 5973WAT     H118321   6.825   4.984   0.302 -0.7750  0.3265 -0.2831
 5973WAT     H218322   6.798   5.035   0.442  1.8124 -0.8391  0.7086
 5974WAT      O18323   4.763   1.092   0.767 -0.0056 -0.1348  0.8937
 5974WAT     H118324   4.780   1.181   0.798  1.9160 -0.4393  0.8531
 5974WAT     H218325   4.736   1.044   0.845  1.7570 -0.1534  1.5405
 5975WAT      O18326   6.721   6.542   0.147 -0.3517  0.0285 -0.9125
 5975WAT     H118327   6.651   6.486   0.114 -0.5905  0.0871 -0.5193
 5975WAT     H218328   6.685   6.580   0.227 -0.5457  1.4373 -1.6314
 5976WAT      O18329   5.411   1.691   6.052  0.1637 -0.6822 -0.2318
 5976WAT     H118330   5.395   1.621   6.116  2.8264 -0.1538  1.1770
 5976WAT     H218331   5.441   1.646   5.974  1.0693 -1.1956  0.3936
 5977WAT      O18332   3.847   0.461   3.192 -0.1040 -0.1734 -1.0847
 5977WAT     H118333   3.857   0.495   3.280  1.2156 -1.3866 -0.7191
 5977WAT     H218334   3.791   0.384   3.202 -0.9822  0.3950 -1.5134
 5978WAT      O18335   4.078   4.290   4.740 -0.1000 -0.3713  1.0192
 5978WAT     H118336   3.987   4.303   4.767  0.3399  1.6420  1.6624
 5978WAT     H218337   4.123   4.370   4.767  1.7560 -1.0845  0.1946
 5979WAT      O18338   0.879   4.902   2.622 -0.5526  0.0796 -0.4588
 5979WAT     H118339   0.924   4.917   2.539 -0.3342  2.8186  0.0596
 5979WAT     H218340   0.949   4.882   2.684 -0.4495  0.3385 -0.4868
 5980WAT      O18341   3.079   0.729   0.895  0.2837 -0.3146 -0.4328
 5980WAT     H118342   3.156   0.720   0.952  0.6849  1.0860 -0.7224
 5980WAT     H218343   3.112   0.715   0.807  0.0187 -0.6483 -0.4805
 5981WAT      O18344   4.419   2.634   1.084  0.2947  0.4914  0.0298
 5981WAT     H118345   4.337   2.586   1.099  1.7255 -2.3412 -0.5591
 5981WAT     H218346   4.488   2.572   1.108  2.3274  2.3792 -0.5734
 5982WAT      O18347   1.124   0.366   2.126  0.3837 -0.3642  0.2935
 5982WAT     H118348   1.173   0.353   2.206  0.9119  1.1103  0.2499
 5982WAT     H218349   1.055   0.429   2.150 -1.7577 -2.6139  0.4382
 5983WAT      O18350   1.494   3.543   1.705  0.3057 -0.1655 -0.3997
 5983WAT     H118351   1.522   3.451   1.715 -0.3484 -0.4944 -1.4723
 5983WAT     H218352   1.403   3.543   1.735  1.2777  0.8731  2.9457
 5984WAT      O18353   0.008   0.829   0.304  0.1676 -0.0738 -0.0102
 5984WAT     H118354   0.060   0.814   0.383 -0.8649 -0.3668  0.6428
 5984WAT     H218355   0.053   0.901   0.259 -0.0429  1.1522  1.6278
 5985WAT      O18356   5.109   3.959   4.119 -0.5663  0.2585  0.2952
 5985WAT     H118357   5.021   3.981   4.152 -1.3214 -1.0695 -0.7052
 5985WAT     H218358   5.110   3.994   4.030  0.4982  1.5713  0.8043
 5986WAT      O18359   1.744   0.445   3.288 -0.2621 -0.4785  0.4621
 5986WAT     H118360   1.707   0.372   3.337  1.3626 -0.8744  1.1784
 5986WAT     H218361   1.837   0.443   3.310 -0.1555  1.7258  0.3833
 5987WAT      O18362   6.102   5.351   1.552  0.2363 -0.0095  0.0116
 5987WAT     H118363   6.050   5.380   1.627 -1.3958 -2.4095 -0.0750
 5987WAT     H218364   6.139   5.267   1.579  3.3286  1.1030 -0.3390
 5988WAT      O18365   7.624   4.320   0.921  1.0138  0.6200 -0.1787
 5988WAT     H118366   7.703   4.359   0.957  1.1327 -1.8077  2.5983
 5988WAT     H218367   7.552   4.372   0.957  1.2486 -0.1271  1.4623
 5989WAT      O18368   4.358   0.989   2.261 -0.2181  0.1185 -0.4198
 5989WAT     H118369   4.387   1.016   2.348 -0.6052 -0.9509  0.0682
 5989WAT     H218370   4.300   1.059   2.232  1.1115  1.2280 -0.4939
 5990WAT      O18371   4.319   2.177   2.873 -0.0860  0.3789 -0.0925
 5990WAT     H118372   4.334   2.272   2.879  0.0375  0.2631  3.1809
 5990WAT     H218373   4.231   2.169   2.837  0.3897  1.6693 -1.6418
 5991WAT      O18374   2.303   6.090   0.097 -0.0894 -0.3615  0.1072
 5991WAT     H118375   2.321   6.131   0.182 -0.4716 -0.2618  0.1429
 5991WAT     H218376   2.305   5.996   0.115  0.1799 -0.3489  0.1520
 5992WAT      O18377   3.241   3.893   4.759 -0.3027 -0.6317 -0.8183
 5992WAT     H118378   3.197   3.883   4.674 -0.0026 -0.1771 -1.0331
 5992WAT     H218379   3.197   3.830   4.816 -0.6599 -0.7847 -1.2517
 5993WAT      O18380   4.795   2.479   3.597  0.3690 -0.4051  0.3803
 5993WAT     H118381   4.788   2.384   3.605 -2.7083 -0.1283  3.5589
 5993WAT     H218382   4.870   2.502   3.652  0.3794 -0.9202  0.5868
 5994WAT      O18383   4.099   6.005   0.218  0.4293  0.1537  0.1233
 5994WAT     H118384   4.120   5.954   0.296  0.4619  0.0991  0.0788
 5994WAT     H218385   4.048   6.079   0.251  2.7322  1.6393  0.5480
 5995WAT      O18386   2.251   6.120   2.096  0.4554  0.1407  0.0791
 5995WAT     H118387   2.298   6.081   2.170  0.2795  1.9578  1.1997
 5995WAT     H218388   2.161   6.127   2.126 -0.0026 -0.7190 -1.0098
 5996WAT      O18389   1.052   0.988   1.694 -0.0803  1.0083 -0.4363
 5996WAT     H118390   1.085   1.002   1.783  0.9806 -0.8119 -0.4778
 5996WAT     H218391   0.972   1.040   1.689  0.5450  2.2016  1.1301
 5997WAT      O18392   5.170   3.338   1.291  0.1598  0.0186 -0.3658
 5997WAT     H118393   5.231   3.291   1.348 -0.9607 -0.3564  0.5526
 5997WAT     H218394   5.087   3.292   1.302  0.0530 -0.5243 -2.8720
 5998WAT      O18395   7.630   5.877   0.659 -0.4336  0.0392 -0.1855
 5998WAT     H118396   7.554   5.824   0.683 -1.2662  0.5724 -1.4968
 5998WAT     H218397   7.626   5.952   0.718 -0.0344 -0.6625  0.7607
 5999WAT      O18398   5.053   2.221   3.617 -0.3029  0.4253 -0.1725
 5999WAT     H118399   5.023   2.224   3.526  0.3713  0.6800 -0.3927
 5999WAT     H218400   5.101   2.139   3.624 -2.0616 -0.5771  0.5155
 6000WAT      O18401   4.792   6.064   5.557  0.1041 -0.3286  0.1351
 6000WAT     H118402   4.720   6.053   5.619 -0.1627 -2.3050 -0.4641
 6000WAT     H218403   4.856   5.998   5.583  1.3772  0.8602  0.1495
 6001WAT      O18404   2.256   0.135   4.997  0.6219  0.4063  0.6505
 6001WAT     H118405   2.289   0.131   4.907  0.3752 -0.6469  0.5948
 6001WAT     H218406   2.333   0.152   5.051  0.8000  0.8428  0.2666
 6002WAT      O18407   0.334   0.786   1.983 -0.0634 -0.2288 -0.1131
 6002WAT     H118408   0.362   0.800   2.073 -0.2607 -1.6543  0.1952
 6002WAT     H218409   0.273   0.712   1.988  1.3574 -1.5959 -1.6440
 6003WAT      O18410   0.563   7.170   5.968 -0.0452 -0.5076 -0.3383
 6003WAT     H118411   0.637   7.119   6.000  0.0554 -1.4467 -1.9627
 6003WAT     H218412   0.487   7.135   6.015  0.3381 -0.4966  0.2990
 6004WAT      O18413   0.449   5.096   4.604  0.0896 -0.0661  0.3609
 6004WAT     H118414   0.501   5.035   4.655  1.6621  0.8179 -0.1277
 6004WAT     H218415   0.382   5.127   4.665  0.4585 -0.8123  1.1677
 6005WAT      O18416   4.371   3.327   5.465  0.0735  0.0563 -0.1255
 6005WAT     H118417   4.367   3.353   5.557 -1.2921  0.6303 -0.3281
 6005WAT     H218418   4.360   3.232   5.467 -1.7859  0.2317  0.2385
 6006WAT      O18419   0.611   0.635   5.269 -0.2320 -0.1045 -0.1285
 6006WAT     H118420   0.614   0.618   5.363 -0.9364 -0.0089 -0.0832
 6006WAT     H218421   0.703   0.644   5.243 -0.0799  1.2052  0.7889
 6007WAT      O18422   0.859   5.138   0.013 -0.3131 -0.0254  0.1566
 6007WAT     H118423   0.859   5.229   0.041 -0.2056 -0.5694  2.0913
 6007WAT     H218424   0.903   5.091   0.083  0.9914 -1.4049 -1.4827
 6008WAT      O18425   7.324   0.718   4.020 -0.2292  0.0093  0.1789
 6008WAT     H118426   7.263   0.783   4.055 -0.6117 -0.3042  0.0940
 6008WAT     H218427   7.408   0.764   4.016 -0.1912  0.0820  1.4268
 6009WAT      O18428   5.770   2.690   0.969  0.1576  0.1869  0.0418
 6009WAT     H118429   5.837   2.733   0.916 -0.8606  2.2632  0.3525
 6009WAT     H218430   5.795   2.597   0.968  2.6129  0.7701 -0.4370
 6010WAT      O18431   5.896   3.947   1.295  0.9603  0.3022  0.6239
 6010WAT     H118432   5.919   3.911   1.210  1.0284  1.1954  0.2510
 6010WAT     H218433   5.893   3.871   1.354  0.8033 -0.3290 -0.1906
 6011WAT      O18434   2.847   4.401   5.060 -0.3211  0.5145  0.2091
 6011WAT     H118435   2.775   4.375   5.118 -1.1171  3.2700  0.5930
 6011WAT     H218436   2.811   4.393   4.972 -0.4102  0.0013  0.2865
 6012WAT      O18437   4.420   4.238   1.387 -0.1492 -0.0726 -0.5459
 6012WAT     H118438   4.457   4.186   1.458  2.4149  1.2919 -0.7639
 6012WAT     H218439   4.434   4.329   1.415 -3.1048  0.5828 -0.8563
 6013WAT      O18440   2.224   3.172   4.129 -0.0972 -0.3466  0.4538
 6013WAT     H118441   2.156   3.109   4.108 -1.3018  1.3897 -1.1808
 6013WAT     H218442   2.181   3.236   4.187  0.8671 -0.5479  1.4288
 6014WAT      O18443   5.662   6.396   2.269  0.3272 -0.4203 -0.6051
 6014WAT     H118444   5.573   6.421   2.296  0.7188  0.4032 -0.0484
 6014WAT     H218445   5.648   6.331   2.200 -0.7224 -1.9522  0.9531
 6015WAT      O18446   0.634   5.777   2.758 -0.0216  0.1639 -0.1052
 6015WAT     H118447   0.613   5.771   2.851  0.8409  0.1073  0.0924
 6015WAT     H218448   0.617   5.689   2.724  0.5217 -0.0633  0.1920
 6016WAT      O18449   2.859   4.125   5.643 -0.2231  0.8367 -0.4269
 6016WAT     H118450   2.912   4.126   5.723  0.0500 -0.4829 -0.5615
 6016WAT     H218451   2.769   4.136   5.674 -0.0293  1.3952 -0.0452
 6017WAT      O18452   4.837   1.292   0.927  0.0760 -0.2800 -0.0199
 6017WAT     H118453   4.801   1.369   0.882  1.1076  1.0608  1.3027
 6017WAT     H218454   4.822   1.310   1.020  3.6427  0.2107  0.6081
 6018WAT      O18455   0.455   1.089   2.251  0.3817  0.5504  0.0188
 6018WAT     H118456   0.411   1.111   2.333  0.4278  2.6711 -0.4732
 6018WAT     H218457   0.399   1.126   2.183  0.0604 -1.6261 -1.0149
 6019WAT      O18458   0.652   5.194   0.987 -0.2951 -0.1925  0.2767
 6019WAT     H118459   0.655   5.154   1.074 -0.8248 -0.4803  0.1669
 6019WAT     H218460   0.609   5.279   1.001  1.0176  0.4569  0.5449
 6020WAT      O18461   0.905   6.210   1.820 -0.0229  0.5525  0.0115
 6020WAT     H118462   0.984   6.193   1.871  0.1163 -0.3219 -0.4744
 6020WAT     H218463   0.926   6.179   1.732 -0.2656  2.0327 -0.5862
 6021WAT      O18464   6.281   1.588   2.819  0.0400  0.0028  0.2346
 6021WAT     H118465   6.326   1.545   2.747 -0.0677  1.8963 -1.0313
 6021WAT     H218466   6.200   1.538   2.829  1.3501 -2.1108  1.1089
 6022WAT      O18467   7.320   0.673   1.537  0.1831 -0.0931  0.1653
 6022WAT     H118468   7.263   0.646   1.465  1.3891 -2.4952 -0.0023
 6022WAT     H218469   7.262   0.687   1.611 -0.8478 -0.0322 -0.6377
 6023WAT      O18470   0.345   6.402   2.578  0.1155  0.4778  0.4286
 6023WAT     H118471   0.332   6.495   2.596 -0.0584  0.8875 -1.5694
 6023WAT     H218472   0.415   6.375   2.637  0.2120  1.8855  0.9861
 6024WAT      O18473   5.850   6.034   1.834  0.5489 -0.1831  0.0558
 6024WAT     H118474   5.783   6.099   1.813  1.0878  0.2831 -0.2536
 6024WAT     H218475   5.929   6.085   1.848  0.2608 -0.4535  3.3198
 6025WAT      O18476   7.022   0.259   0.192 -0.0681  0.6466  0.2757
 6025WAT     H118477   7.021   0.348   0.156 -0.5410  0.5590  0.0688
 6025WAT     H218478   6.932   0.228   0.183 -0.3359  0.8216  2.0368
 6026WAT      O18479   0.015   0.313   5.926  0.2546 -0.6264  0.0676
 6026WAT     H118480   0.064   0.387   5.962 -0.3140  0.1549 -0.7487
 6026WAT     H218481  -0.076   0.329   5.953 -0.3147  0.3190 -2.1569
 6027WAT      O18482   3.530   6.314   0.400  0.0508 -0.0415 -0.4322
 6027WAT     H118483   3.534   6.320   0.495 -0.6716 -2.0271 -0.2293
 6027WAT     H218484   3.498   6.225   0.383  1.0913 -0.0731 -2.5497
 6028WAT      O18485   3.777   7.117   3.319  0.1618 -0.4184 -0.4565
 6028WAT     H118486   3.693   7.123   3.273  0.7290  0.1492 -1.4706
 6028WAT     H218487   3.754   7.093   3.408 -1.1334  0.4400 -0.5273
 6029WAT      O18488   3.507   6.388   1.428 -0.0763  0.0765  0.0128
 6029WAT     H118489   3.515   6.302   1.387 -0.5188  0.5236 -1.0651
 6029WAT     H218490   3.575   6.442   1.387 -0.1891  0.4013  0.2421
 6030WAT      O18491   5.459   6.598   3.327  0.7927  0.3378  0.1335
 6030WAT     H118492   5.449   6.553   3.411  1.2785  0.7222  0.4041
 6030WAT     H218493   5.507   6.678   3.349  0.3675  0.7524 -0.4125
 6031WAT      O18494   2.098   6.169   0.897 -0.2946  0.0247 -0.1195
 6031WAT     H118495   2.096   6.234   0.967  0.1065 -0.2145  0.1148
 6031WAT     H218496   2.006   6.143   0.886 -0.1297 -1.8318  2.1022
 6032WAT      O18497   0.306   2.604   4.217  0.1362 -0.5553 -0.2183
 6032WAT     H118498   0.329   2.555   4.296 -3.2615 -0.9568  0.6918
 6032WAT     H218499   0.326   2.544   4.145 -3.0281 -3.1515  0.8098
 6033WAT      O18500   6.310   0.817   3.113  0.5281  0.4803  0.1293
 6033WAT     H118501   6.333   0.909   3.129 -2.2589  1.3038 -0.1438
 6033WAT     H218502   6.338   0.772   3.192 -1.9813  2.3852  2.2759
 6034WAT      O18503   3.796   1.565   0.579  0.0806 -0.2537 -0.3381
 6034WAT     H118504   3.768   1.593   0.666  0.7554  1.0907 -0.5214
 6034WAT     H218505   3.876   1.616   0.562  1.2723 -2.1671 -0.8106
 6035WAT      O18506   3.972   3.719   0.124  0.3079  0.2572 -0.0750
 6035WAT     H118507   4.002   3.629   0.113  0.8231  0.4652 -0.3743
 6035WAT     H218508   3.989   3.739   0.216 -0.0379 -0.0295  0.0557
 6036WAT      O18509   4.788   7.128   4.787 -0.1315  0.3622 -0.1104
 6036WAT     H118510   4.722   7.141   4.855 -0.0177  0.8069 -0.0832
 6036WAT     H218511   4.840   7.208   4.788 -0.5025  0.6282 -1.1331
 6037WAT      O18512   7.120   6.069   2.527 -0.3846 -0.1948  0.3225
 6037WAT     H118513   7.041   6.120   2.540  0.3102  1.0269 -0.0971
 6037WAT     H218514   7.129   6.018   2.607 -0.5931  1.0707  1.1850
 6038WAT      O18515   2.173   5.077   3.437 -0.0834 -0.0017  0.1468
 6038WAT     H118516   2.098   5.123   3.400  0.0162 -0.3254 -0.4673
 6038WAT     H218517   2.149   4.984   3.433  0.4712 -0.1282 -0.3299
 6039WAT      O18518   1.101   4.954   3.446  0.4475 -0.4088  0.2870
 6039WAT     H118519   1.135   4.969   3.535  0.7545  0.3703  0.0416
 6039WAT     H218520   1.172   4.909   3.401  0.0569 -1.3952  0.6008
 6040WAT      O18521   0.593   0.629   5.547  0.1273  0.1743  0.4820
 6040WAT     H118522   0.501   0.625   5.574 -0.5937  2.3210 -1.2805
 6040WAT     H218523   0.608   0.722   5.530  1.7284 -0.4401 -2.0600
 6041WAT      O18524   6.466   1.354   5.335 -0.0404 -0.1860  0.6294
 6041WAT     H118525   6.414   1.273   5.335 -0.8418  0.2967 -0.4754
 6041WAT     H218526   6.471   1.379   5.427 -1.4193 -0.4824  0.8083
 6042WAT      O18527   7.254   4.468   2.000  0.0899  0.0990  0.1915
 6042WAT     H118528   7.227   4.492   1.912 -1.2164  3.0634  1.2720
 6042WAT     H218529   7.173   4.466   2.051  1.0867  2.1027  2.0222
 6043WAT      O18530   5.577   0.341   4.171  0.6181 -0.4868 -0.5636
 6043WAT     H118531   5.539   0.366   4.087  0.4109  1.4695  0.0404
 6043WAT     H218532   5.667   0.371   4.167  0.5953 -0.3356 -0.0920
 6044WAT      O18533   3.656   5.244   3.183  0.0032 -0.4950  0.2613
 6044WAT     H118534   3.718   5.238   3.256  0.1663 -1.2779  0.0641
 6044WAT     H218535   3.587   5.182   3.204  1.2052 -2.5043 -1.3272
 6045WAT      O18536   1.440   1.738   1.752 -0.4111  0.4066 -0.8481
 6045WAT     H118537   1.458   1.832   1.752  1.7245  0.0491 -1.8003
 6045WAT     H218538   1.477   1.706   1.834  0.2334  0.1771 -1.2255
 6046WAT      O18539   0.931   3.784   2.915 -0.5978  0.3210  0.0829
 6046WAT     H118540   0.941   3.877   2.930  0.8845  0.1280  0.3690
 6046WAT     H218541   0.921   3.746   3.002  0.5494  0.0266  0.0944
 6047WAT      O18542   7.205   0.996   0.223 -0.5120  0.1057 -0.2248
 6047WAT     H118543   7.276   0.991   0.287  1.6719 -1.9424 -2.5966
 6047WAT     H218544   7.234   1.062   0.160 -1.5271  0.4207 -0.3833
 6048WAT      O18545   4.502   5.469   2.232  0.0414 -0.9391 -0.2865
 6048WAT     H118546   4.478   5.400   2.169  0.7730 -1.7485  0.3004
 6048WAT     H218547   4.561   5.426   2.293  0.7797  0.3105 -0.0955
 6049WAT      O18548   1.016   6.669   0.339 -0.0261 -0.0491 -0.3383
 6049WAT     H118549   1.093   6.722   0.360  2.1174 -1.7281 -3.1779
 6049WAT     H218550   1.029   6.589   0.390 -0.8498  0.3211  0.4750
 6050WAT      O18551   5.790   6.591   0.478  0.2006  0.0399  0.1739
 6050WAT     H118552   5.706   6.632   0.462  0.1706 -1.0471 -3.1105
 6050WAT     H218553   5.774   6.530   0.550 -2.2346 -1.1637 -1.2706
 6051WAT      O18554   5.540   6.067   3.085  0.2174  0.4356 -0.2043
 6051WAT     H118555   5.550   6.004   3.156  1.6227  1.1943  0.2861
 6051WAT     H218556   5.515   6.149   3.127 -1.1084  0.3797 -0.8016
 6052WAT      O18557   5.741   1.726   3.212 -0.4749 -0.0059  0.1263
 6052WAT     H118558   5.677   1.660   3.237  0.1694 -1.4613 -1.9003
 6052WAT     H218559   5.769   1.764   3.296 -0.6473 -2.4770  1.3882
 6053WAT      O18560   7.329   4.469   4.079  0.0746  0.4885 -0.2597
 6053WAT     H118561   7.234   4.463   4.088  0.3015 -2.0876  2.1860
 6053WAT     H218562   7.352   4.398   4.020  0.4914  1.3811 -1.1965
 6054WAT      O18563   6.360   2.784   2.793 -0.3975  0.1462  0.0781
 6054WAT     H118564   6.356   2.788   2.697 -2.0651  1.9641  0.1680
 6054WAT     H218565   6.413   2.706   2.811 -0.9236 -0.8710 -2.3148
 6055WAT      O18566   3.864   7.029   1.354  0.3947  0.1674  0.5429
 6055WAT     H118567   3.779   7.041   1.397 -0.1758  0.3747 -0.5993
 6055WAT     H218568   3.854   6.947   1.306  1.1900 -0.3107  1.1637
 6056WAT      O18569   2.677   1.222   2.204  0.3788 -0.3345  0.2548
 6056WAT     H118570   2.757   1.263   2.171 -0.0660  1.2634  1.0786
 6056WAT     H218571   2.645   1.170   2.130  1.8498 -0.5616 -0.2727
 6057WAT      O18572   7.150   3.523   5.907 -0.1023  0.3249 -0.4644
 6057WAT     H118573   7.085   3.524   5.976 -1.0837  0.8647 -1.3702
 6057WAT     H218574   7.118   3.458   5.844  0.4438  0.2972 -0.7205
 6058WAT      O18575   3.863   6.424   2.674  0.3580  0.4070  0.1978
 6058WAT     H118576   3.901   6.336   2.678  2.8145  1.3975  1.8741
 6058WAT     H218577   3.918   6.471   2.611  0.9252  1.4296  1.3949
 6059WAT      O18578   1.337   7.070   0.817  0.0714  0.1609  0.2201
 6059WAT     H118579   1.335   7.075   0.721 -0.3958  1.8020  0.2969
 6059WAT     H218580   1.420   7.111   0.842  0.3476 -0.5572  0.5314
 6060WAT      O18581   3.116   2.771   5.474 -0.2827 -0.1318  0.1791
 6060WAT     H118582   3.079   2.782   5.562  1.0250 -0.8484  0.8489
 6060WAT     H218583   3.166   2.851   5.459 -0.8966  0.2044 -0.1348
 6061WAT      O18584   2.139   6.538   2.178 -0.3234 -0.6441  0.0565
 6061WAT     H118585   2.161   6.478   2.249 -1.0530  1.4823  2.2284
 6061WAT     H218586   2.044   6.546   2.182 -0.2583  0.4896 -0.3006
 6062WAT      O18587   1.305   4.793   3.024 -0.1931 -0.1654 -0.2625
 6062WAT     H118588   1.302   4.781   3.119 -0.3693 -0.4425 -0.3020
 6062WAT     H218589   1.220   4.832   3.002  0.2513  0.8768 -0.1764
 6063WAT      O18590   0.496   0.069   2.564  0.3761  0.6372  0.3441
 6063WAT     H118591   0.566   0.060   2.628  1.1602  0.5480 -0.5090
 6063WAT     H218592   0.417   0.080   2.616  0.3806 -3.2178  1.4594
 6064WAT      O18593   4.830   4.717   1.954  0.1731 -0.5471  0.4450
 6064WAT     H118594   4.771   4.793   1.956  0.1869 -0.5456  0.8403
 6064WAT     H218595   4.914   4.753   1.925  0.2172 -0.3833  0.7707
 6065WAT      O18596   0.906   5.895   3.844  0.5893 -0.0382 -0.2199
 6065WAT     H118597   0.929   5.887   3.752  0.8778  1.9534 -0.3471
 6065WAT     H218598   0.838   5.828   3.857 -0.1345  0.2719 -2.0944
 6066WAT      O18599   4.983   1.864   2.225  0.2159  0.0867 -0.5866
 6066WAT     H118600   5.049   1.821   2.279 -0.4492 -0.3846 -0.1317
 6066WAT     H218601   4.952   1.937   2.278  0.8447  0.7269 -1.0763
 6067WAT      O18602   1.882   6.520   5.442  0.6048  0.0309 -0.6596
 6067WAT     H118603   1.916   6.600   5.482 -2.6941  1.3835 -0.2290
 6067WAT     H218604   1.911   6.450   5.501 -0.6630  1.5206  1.8953
 6068WAT      O18605   4.300   6.993   3.975  0.9783  0.5128 -0.2963
 6068WAT     H118606   4.299   7.009   4.070  0.4502  0.2609 -0.2570
 6068WAT     H218607   4.227   6.934   3.960  1.3685  0.1517 -0.7983
 6069WAT      O18608   3.322   2.439   3.096 -0.2079  0.0923  0.8008
 6069WAT     H118609   3.254   2.491   3.141 -0.9323  0.0278 -0.1975
 6069WAT     H218610   3.300   2.348   3.117 -0.4469  0.0705  0.4640
 6070WAT      O18611   2.883   4.925   0.551 -0.0863  0.4247 -0.5576
 6070WAT     H118612   2.802   4.882   0.578 -0.0723  1.6568  1.6615
 6070WAT     H218613   2.890   4.905   0.458 -2.5345 -0.3513 -0.6592
 6071WAT      O18614   5.868   0.694   5.476  0.0657 -0.2753  0.0604
 6071WAT     H118615   5.826   0.636   5.539 -0.2636 -1.3363 -1.0944
 6071WAT     H218616   5.962   0.682   5.490  0.0063 -1.4680 -0.4868
 6072WAT      O18617   3.035   0.293   4.394  0.2716  0.0357  0.2801
 6072WAT     H118618   3.063   0.372   4.346 -0.9181 -0.7230 -1.8286
 6072WAT     H218619   2.939   0.297   4.391  0.1816 -1.8483 -0.5487
 6073WAT      O18620   0.168   6.930   2.663 -0.4398 -0.4151 -0.8386
 6073WAT     H118621   0.112   6.868   2.616  0.0685 -0.0183 -2.0150
 6073WAT     H218622   0.107   6.983   2.715 -0.9811 -1.1433 -0.7154
 6074WAT      O18623   3.980   6.238   0.012  0.0320 -0.2923 -0.0830
 6074WAT     H118624   3.922   6.313   0.026  0.1155 -0.4288  1.0753
 6074WAT     H218625   3.926   6.162   0.032  0.7770 -0.3919  1.6726
 6075WAT      O18626   2.711   4.176   6.119 -0.0909  0.3237  0.6407
 6075WAT     H118627   2.727   4.216   6.205 -1.9214  2.1034  0.2300
 6075WAT     H218628   2.669   4.092   6.139 -2.1704  1.5121  1.5252
 6076WAT      O18629   3.238   1.762   0.902  0.2232 -0.0365 -0.4227
 6076WAT     H118630   3.260   1.804   0.985 -1.9718 -0.8198  0.6399
 6076WAT     H218631   3.313   1.706   0.883  0.3123 -0.7395  1.6868
 6077WAT      O18632   2.578   0.295   0.858  0.7254 -0.2349  0.6776
 6077WAT     H118633   2.593   0.202   0.875  0.4734 -0.0899  1.7595
 6077WAT     H218634   2.576   0.302   0.762 -1.6864 -1.7386  0.5483
 6078WAT      O18635   3.319   0.451   2.642 -0.4334  0.4626 -0.0197
 6078WAT     H118636   3.282   0.394   2.711 -0.0022 -0.9179 -0.8815
 6078WAT     H218637   3.397   0.489   2.681  0.3539 -1.0769 -0.0328
 6079WAT      O18638   0.447   0.831   5.143 -0.0526  0.4418  0.1964
 6079WAT     H118639   0.485   0.762   5.199 -1.9255 -2.5035 -1.8576
 6079WAT     H218640   0.355   0.834   5.169 -0.8656 -0.7020 -2.2703
 6080WAT      O18641   4.630   6.850   5.682 -0.0064 -0.0521  0.2401
 6080WAT     H118642   4.576   6.842   5.760  0.9176 -2.2417  0.7248
 6080WAT     H218643   4.704   6.792   5.698 -0.4988 -1.7350 -2.8708
 6081WAT      O18644   5.433   5.861   0.173  0.3486  0.7640 -0.2602
 6081WAT     H118645   5.413   5.806   0.097 -0.6065  1.0074 -0.2033
 6081WAT     H218646   5.504   5.815   0.219  0.0926 -0.0188 -0.6347
 6082WAT      O18647   4.895   1.140   4.927 -0.0027  0.9113  0.0806
 6082WAT     H118648   4.827   1.190   4.881  0.8264  1.5490 -0.4982
 6082WAT     H218649   4.966   1.133   4.863 -0.5326 -2.0777 -0.2868
 6083WAT      O18650   2.183   1.905   5.438  0.1232  0.0571  0.8187
 6083WAT     H118651   2.115   1.933   5.378 -0.0388 -0.1377  0.9109
 6083WAT     H218652   2.185   1.810   5.430  0.2513  0.0471  0.9574
 6084WAT      O18653   0.074   2.739   4.148  0.1991 -0.0202 -0.1350
 6084WAT     H118654   0.143   2.779   4.095 -0.5228 -0.9929 -1.8995
 6084WAT     H218655   0.117   2.662   4.187  0.1260 -0.6995 -1.3326
 6085WAT      O18656   5.362   5.016   4.685  0.0460  0.0387 -0.0192
 6085WAT     H118657   5.391   5.107   4.690 -1.6164  0.5863  0.2835
 6085WAT     H218658   5.279   5.015   4.734  1.4320 -2.2405  2.5931
 6086WAT      O18659   5.626   5.184   4.026 -0.1555  0.3423  0.0382
 6086WAT     H118660   5.710   5.173   4.071  0.0282 -0.3225 -0.4585
 6086WAT     H218661   5.610   5.279   4.028  0.6678  0.4883  0.0236
 6087WAT      O18662   2.508   7.193   4.259 -0.5618  0.2012 -0.0064
 6087WAT     H118663   2.459   7.239   4.327 -0.4677 -0.6089  0.6229
 6087WAT     H218664   2.542   7.115   4.302 -0.2170 -0.1563 -0.8975
 6088WAT      O18665   6.927   6.860   5.825  0.1059  0.1590 -0.0477
 6088WAT     H118666   6.857   6.794   5.821 -0.0083  0.2650  0.1869
 6088WAT     H218667   6.999   6.816   5.869 -0.4836  0.6424  1.4789
 6089WAT      O18668   1.558   6.291   4.418  0.2073  0.2111  0.5827
 6089WAT     H118669   1.569   6.221   4.353 -2.1379  1.0741 -0.8686
 6089WAT     H218670   1.621   6.269   4.487 -0.0308 -3.0034 -0.0449
 6090WAT      O18671   5.102   0.626   0.757  0.5141 -0.6835 -0.2157
 6090WAT     H118672   5.113   0.716   0.788  0.1745 -0.9884  0.8470
 6090WAT     H218673   5.140   0.626   0.670  1.1280  0.3300  0.0338
 6091WAT      O18674   1.939   5.373   3.165  0.1466  0.8896 -1.0530
 6091WAT     H118675   1.978   5.396   3.250 -0.7555 -2.2186  0.3567
 6091WAT     H218676   1.994   5.418   3.101  0.6159  3.7091  1.1327
 6092WAT      O18677   5.202   2.467   4.642  0.3399  0.1824  0.3008
 6092WAT     H118678   5.291   2.460   4.676  0.6408 -1.5086 -0.6681
 6092WAT     H218679   5.183   2.561   4.640  1.5837  0.4896  1.7743
 6093WAT      O18680   1.017   1.085   4.987  0.2812 -0.0594 -0.4224
 6093WAT     H118681   0.993   1.062   4.898 -0.2848  1.0391 -0.5645
 6093WAT     H218682   0.943   1.055   5.041 -0.0223  0.5591 -0.4935
 6094WAT      O18683   4.726   4.701   4.424  0.4658  0.4810 -0.4228
 6094WAT     H118684   4.710   4.692   4.518  1.0303  1.0694 -0.2671
 6094WAT     H218685   4.713   4.613   4.389 -2.0730  0.6710 -0.1580
 6095WAT      O18686   5.913   3.719   1.420  0.6643 -0.2172 -0.1418
 6095WAT     H118687   5.968   3.674   1.484  0.0303 -0.8821 -0.0453
 6095WAT     H218688   5.827   3.723   1.462  0.2213 -0.7159 -0.9707
 6096WAT      O18689   7.115   5.947   1.440  0.2557  0.4092  0.1081
 6096WAT     H118690   7.121   5.899   1.523  0.2229 -0.8775 -0.6054
 6096WAT     H218691   7.129   5.880   1.373  0.2900  1.4312 -0.9283
 6097WAT      O18692   4.485   6.073   2.590  0.1976 -0.6690  0.5637
 6097WAT     H118693   4.521   6.013   2.655 -0.3291 -3.1459 -1.2780
 6097WAT     H218694   4.559   6.091   2.531  0.8250  1.9955  1.9948
 6098WAT      O18695   7.534   0.377   2.559 -0.4785  0.0194  0.2516
 6098WAT     H118696   7.503   0.435   2.490 -1.1641 -0.7796 -0.1261
 6098WAT     H218697   7.594   0.431   2.611  0.0796  0.6232 -0.9805
 6099WAT      O18698   7.624   1.763   2.249 -0.1945 -0.3471  0.0551
 6099WAT     H118699   7.560   1.805   2.191 -0.6367 -1.5128 -0.3418
 6099WAT     H218700   7.596   1.671   2.252  0.7430 -0.6209  0.8797
 6100WAT      O18701   0.194   3.647   1.982 -0.1858 -0.2712  0.0795
 6100WAT     H118702   0.263   3.702   1.947  0.8072 -1.0609  0.7018
 6100WAT     H218703   0.148   3.613   1.905  0.8420 -0.6083 -0.4103
 6101WAT      O18704   7.162   5.565   3.755 -0.0871  0.1852  0.1937
 6101WAT     H118705   7.106   5.540   3.682 -2.5324  1.6650  1.4155
 6101WAT     H218706   7.161   5.489   3.813  0.1951 -0.2409 -0.3481
 6102WAT      O18707   2.971   0.873   0.587  0.4090 -0.0806  0.6758
 6102WAT     H118708   2.946   0.791   0.629  0.8428 -0.6283 -0.1147
 6102WAT     H218709   3.036   0.911   0.646 -0.9848  0.5213  1.8830
 6103WAT      O18710   4.092   0.287   2.290  0.1062  0.3510  0.1420
 6103WAT     H118711   4.066   0.204   2.332 -1.5178  1.4147  1.3894
 6103WAT     H218712   4.186   0.279   2.276 -0.0614 -1.8199 -0.0407
 6104WAT      O18713   6.486   2.497   5.903  0.5677 -0.0211  0.0106
 6104WAT     H118714   6.557   2.523   5.962  1.1482 -1.5136  0.0153
 6104WAT     H218715   6.518   2.520   5.816  1.0510 -0.6422  0.0170
 6105WAT      O18716   3.044   2.054   4.336  0.1605  0.2418  0.3974
 6105WAT     H118717   3.014   2.057   4.246  2.6074  0.4553 -0.4896
 6105WAT     H218718   3.117   1.992   4.335 -0.7066 -0.9238  2.5654
 6106WAT      O18719   1.392   1.679   0.652 -0.0285 -0.0249 -0.0923
 6106WAT     H118720   1.442   1.693   0.732  0.1783 -0.4240 -0.1465
 6106WAT     H218721   1.325   1.614   0.676 -0.0350 -0.0637 -0.2130
 6107WAT      O18722   3.858   6.576   1.410 -0.1073 -0.0464  0.3628
 6107WAT     H118723   3.922   6.623   1.357  0.8700 -0.1359  1.4135
 6107WAT     H218724   3.773   6.605   1.377  0.4753  0.8867 -0.3680
 6108WAT      O18725   4.592   5.596   3.205 -0.6183  0.3623  0.5257
 6108WAT     H118726   4.618   5.591   3.113 -1.1286  0.5248  0.3742
 6108WAT     H218727   4.537   5.519   3.219 -1.7336  1.1139  0.3161
 6109WAT      O18728   6.054   6.035   1.129 -0.6430 -0.3082  0.0439
 6109WAT     H118729   6.038   6.062   1.038 -1.0401 -1.0910 -0.1281
 6109WAT     H218730   6.046   6.116   1.180  1.7982  0.6062 -0.8407
 6110WAT      O18731   5.693   6.540   0.046 -0.3571 -0.1654 -0.3726
 6110WAT     H118732   5.709   6.630   0.016  0.4132 -0.2852 -0.3561
 6110WAT     H218733   5.665   6.550   0.137 -0.6602  0.0792 -0.4912
 6111WAT      O18734   3.241   2.014   0.188 -0.6603 -0.5564  0.1127
 6111WAT     H118735   3.310   2.013   0.255 -1.6972 -2.0610  1.2334
 6111WAT     H218736   3.162   2.039   0.235 -1.1353 -0.1204 -0.8912
 6112WAT      O18737   7.231   5.062   1.562 -0.1275 -0.0021  0.6428
 6112WAT     H118738   7.225   4.972   1.531  0.4678  0.1097  0.1860
 6112WAT     H218739   7.319   5.091   1.536  0.1184  0.3287  1.8080
 6113WAT      O18740   4.976   4.500   1.779  0.3304  0.0796 -0.0015
 6113WAT     H118741   5.061   4.514   1.821  1.3541 -0.1626 -1.8835
 6113WAT     H218742   4.923   4.574   1.807  0.6021 -0.5712  2.4838
 6114WAT      O18743   4.622   5.886   2.743  0.6748  0.4822  0.1806
 6114WAT     H118744   4.563   5.813   2.722 -0.4890  1.1171  1.1343
 6114WAT     H218745   4.663   5.861   2.825  1.5347  0.1826 -0.3265
 6115WAT      O18746   2.231   0.588   2.400  0.0889  0.3289  0.2737
 6115WAT     H118747   2.223   0.577   2.305 -1.9905 -0.4331  0.5012
 6115WAT     H218748   2.323   0.615   2.413  1.0512 -1.7027 -1.7225
 6116WAT      O18749   6.423   2.203   4.130 -0.2013 -0.3345  0.3568
 6116WAT     H118750   6.335   2.239   4.141 -0.4319 -0.9944  0.8123
 6116WAT     H218751   6.413   2.110   4.152  0.8723 -0.1586  1.7467
 6117WAT      O18752   5.143   3.423   6.119  0.1274  0.2605  0.3313
 6117WAT     H118753   5.219   3.368   6.137  2.9394  3.4881 -0.6869
 6117WAT     H218754   5.150   3.445   6.026 -0.6669  2.5257  0.7405
 6118WAT      O18755   3.871   3.676   0.450  0.5878  0.1750 -0.5774
 6118WAT     H118756   3.916   3.760   0.442 -1.4648  1.2053 -2.3318
 6118WAT     H218757   3.784   3.698   0.484  0.8875 -1.6107  1.5682
 6119WAT      O18758   6.828   1.330   1.957 -0.0738  0.2175  0.5308
 6119WAT     H118759   6.744   1.301   1.994 -2.1210  1.7695 -2.4108
 6119WAT     H218760   6.840   1.418   1.993 -0.4305  0.4991 -0.0171
 6120WAT      O18761   5.365   0.989   3.865 -0.4369  0.1557 -0.4868
 6120WAT     H118762   5.301   1.018   3.930 -1.1476  0.3305 -1.2565
 6120WAT     H218763   5.313   0.958   3.791  0.3467 -1.1451 -0.5188
 6121WAT      O18764   2.812   4.840   3.757 -0.1456 -0.1281  0.2094
 6121WAT     H118765   2.774   4.754   3.742  2.3788 -1.7120  1.9852
 6121WAT     H218766   2.769   4.872   3.836 -2.0109  0.9415 -1.1504
 6122WAT      O18767   5.444   5.443   2.733 -0.4949 -0.3322 -0.4825
 6122WAT     H118768   5.443   5.355   2.771 -0.5783  0.5328  1.6200
 6122WAT     H218769   5.518   5.487   2.775 -0.2392  0.5386 -1.7641
 6123WAT      O18770   0.314   0.824   4.743  0.1971  0.6139  0.0218
 6123WAT     H118771   0.374   0.784   4.807 -0.8073 -0.2826  0.4415
 6123WAT     H218772   0.253   0.754   4.721 -1.0095  1.6410  0.0046
 6124WAT      O18773   0.231   0.512   0.182 -0.0998  0.0850  0.2825
 6124WAT     H118774   0.310   0.460   0.164 -0.0249  0.7158 -1.2899
 6124WAT     H218775   0.262   0.602   0.186 -0.7970  0.3785 -0.7452
 6125WAT      O18776   3.300   7.164   5.931  0.3527  0.4120 -0.3433
 6125WAT     H118777   3.261   7.091   5.883  0.2807  0.4458 -0.3373
 6125WAT     H218778   3.286   7.240   5.874 -0.2569  0.5584 -0.0116
 6126WAT      O18779   5.652   3.424   1.462  0.0653  0.3502 -0.3991
 6126WAT     H118780   5.716   3.379   1.517 -0.0705 -1.1266 -1.3865
 6126WAT     H218781   5.680   3.516   1.464  1.3087 -0.0118  0.4149
 6127WAT      O18782   2.916   3.057   6.243  0.2310  0.1960 -0.1050
 6127WAT     H118783   2.821   3.047   6.248  0.3171 -0.2681  0.7774
 6127WAT     H218784   2.944   3.062   6.334  1.1198 -0.2856 -0.3437
 6128WAT      O18785   2.235   3.543   3.674  0.1818 -0.2200  0.0041
 6128WAT     H118786   2.208   3.597   3.748 -0.0670  0.3906 -0.5177
 6128WAT     H218787   2.179   3.466   3.678  1.9021 -1.4842  1.9636
 6129WAT      O18788   7.339   0.874   2.567  0.2491 -0.1872  0.0183
 6129WAT     H118789   7.381   0.867   2.653  3.9380  0.2841 -1.5356
 6129WAT     H218790   7.346   0.967   2.544  0.2541 -0.4591 -1.1703
 6130WAT      O18791   1.990   0.319   0.604  0.2489 -0.3208 -0.5760
 6130WAT     H118792   1.959   0.329   0.694  1.0749  1.2826 -0.4278
 6130WAT     H218793   1.921   0.270   0.560 -0.1626 -1.1435  0.9304
 6131WAT      O18794   5.180   4.351   4.597 -0.0919 -0.1229  0.0172
 6131WAT     H118795   5.132   4.364   4.678 -1.8938 -0.3838 -0.9468
 6131WAT     H218796   5.240   4.280   4.616 -1.5753 -1.2511  0.7319
 6132WAT      O18797   4.160   6.833   3.399  0.2845  0.3985  0.3062
 6132WAT     H118798   4.246   6.847   3.439  0.2305  1.0667  0.2108
 6132WAT     H218799   4.098   6.850   3.471  0.2155  0.6768  0.1841
 6133WAT      O18800   4.806   6.455   4.464 -0.0161 -0.2605 -0.4103
 6133WAT     H118801   4.889   6.488   4.429  1.2657 -0.6458  2.0884
 6133WAT     H218802   4.742   6.522   4.440  1.0187  0.1499 -2.2098
 6134WAT      O18803   1.983   2.121   1.835 -0.6457 -0.2327  0.0098
 6134WAT     H118804   1.902   2.161   1.806 -0.2725  1.3978  1.0979
 6134WAT     H218805   2.051   2.164   1.783 -0.2126  0.8333  1.4076
 6135WAT      O18806   0.826   4.547   2.062 -0.2553  0.3276 -0.4047
 6135WAT     H118807   0.903   4.495   2.039 -1.5458 -2.3405  0.9048
 6135WAT     H218808   0.813   4.532   2.155 -1.0003  2.7369 -0.0333
 6136WAT      O18809   6.009   5.666   4.616  0.2501  0.1808  0.1551
 6136WAT     H118810   5.943   5.699   4.678  0.8936  2.3374 -0.2205
 6136WAT     H218811   6.062   5.605   4.668 -0.6132  0.1736  1.0797
 6137WAT      O18812   3.391   4.796   0.891  0.0895  0.3454  0.8797
 6137WAT     H118813   3.333   4.862   0.930 -0.0448  0.1520  1.0057
 6137WAT     H218814   3.384   4.720   0.949  1.8478  0.9197  1.8996
 6138WAT      O18815   7.471   0.883   2.831 -0.5127 -0.4266  0.0066
 6138WAT     H118816   7.458   0.789   2.848 -1.9919 -0.2687 -0.1278
 6138WAT     H218817   7.511   0.916   2.912 -1.5619 -0.8717  0.7387
 6139WAT      O18818   0.629   6.692   2.940 -0.5151 -0.3676 -0.2301
 6139WAT     H118819   0.570   6.766   2.955 -0.5985 -0.4667 -0.0736
 6139WAT     H218820   0.714   6.733   2.922 -0.2789 -0.2490  1.0589
 6140WAT      O18821   2.688   1.649   4.763 -0.3487  0.2098  0.4070
 6140WAT     H118822   2.686   1.644   4.667  0.5942  0.8167  0.3446
 6140WAT     H218823   2.631   1.723   4.784 -0.1895  0.3696  0.2822
 6141WAT      O18824   1.553   4.264   3.906  0.0181  0.3979  0.0387
 6141WAT     H118825   1.647   4.277   3.911  0.0410  1.0203 -1.2617
 6141WAT     H218826   1.522   4.340   3.856 -1.7181  2.4118  3.7918
 6142WAT      O18827   0.694   5.611   0.873  0.2501  0.1791  0.1085
 6142WAT     H118828   0.657   5.696   0.850  1.0380  1.0271  1.8385
 6142WAT     H218829   0.627   5.570   0.928 -1.1673 -1.3979 -2.5800
 6143WAT      O18830   3.683   4.415   1.576 -0.1140  0.0556  0.4464
 6143WAT     H118831   3.593   4.385   1.578 -0.8151  2.0095  0.7306
 6143WAT     H218832   3.695   4.459   1.661  0.3471  1.7307 -0.4297
 6144WAT      O18833   6.624   3.263   3.394 -0.0107  0.2862  0.0481
 6144WAT     H118834   6.623   3.354   3.363 -1.8140  0.0785 -0.6489
 6144WAT     H218835   6.549   3.257   3.453  1.2635 -0.2695  1.6874
 6145WAT      O18836   5.909   5.695   0.273  0.2277 -0.1287  0.3921
 6145WAT     H118837   5.988   5.744   0.249 -0.3684  0.5868 -0.1962
 6145WAT     H218838   5.882   5.733   0.356  1.4951 -1.6227  1.5316
 6146WAT      O18839   7.618   4.349   5.083 -0.2275  0.5181  0.6157
 6146WAT     H118840   7.681   4.417   5.107  0.0399 -0.0681  1.6279
 6146WAT     H218841   7.533   4.385   5.108 -0.1511  0.7263  0.5819
 6147WAT      O18842   6.513   6.866   1.783  0.0215  0.2738 -0.4814
 6147WAT     H118843   6.483   6.947   1.741 -1.0545  0.6901  0.9850
 6147WAT     H218844   6.513   6.887   1.876 -0.2917 -1.4151 -0.0702
 6148WAT      O18845   5.842   2.628   5.910  0.0058  0.5453 -0.3663
 6148WAT     H118846   5.812   2.622   6.001  0.8528 -0.9400 -0.1568
 6148WAT     H218847   5.892   2.710   5.908 -1.5775  1.5830 -0.0149
 6149WAT      O18848   1.719   5.593   5.826 -0.2858 -0.5153 -0.3014
 6149WAT     H118849   1.750   5.569   5.913  0.3663  0.2243 -0.3273
 6149WAT     H218850   1.771   5.538   5.767  0.1742 -0.1108 -0.2824
 6150WAT      O18851   1.160   3.251   2.656  0.0052  0.1474  0.1632
 6150WAT     H118852   1.201   3.191   2.718 -0.0869  0.2933  0.3655
 6150WAT     H218853   1.199   3.336   2.676  2.8596 -0.3673 -2.4452
 6151WAT      O18854   2.359   1.453   1.268 -0.0288  0.2330 -0.7808
 6151WAT     H118855   2.309   1.534   1.261 -0.3140  0.0854 -0.4777
 6151WAT     H218856   2.349   1.426   1.359  0.7093  0.2606 -0.6880
 6152WAT      O18857   2.782   6.445   3.387  0.4993 -0.0465  0.0794
 6152WAT     H118858   2.844   6.457   3.315  0.9269  0.7538  0.5701
 6152WAT     H218859   2.716   6.514   3.374  0.1447 -0.3964  0.0079
 6153WAT      O18860   6.088   4.286   3.382  0.2482 -0.5022  0.5942
 6153WAT     H118861   6.049   4.210   3.339 -1.8839  0.9124 -0.0894
 6153WAT     H218862   6.022   4.354   3.377  1.9197  1.3094  1.5810
 6154WAT      O18863   0.780   2.861   2.338 -0.1689 -0.1537 -0.6879
 6154WAT     H118864   0.818   2.774   2.355 -2.2191 -0.7741  1.0916
 6154WAT     H218865   0.719   2.875   2.410  1.1191  3.4303 -0.0992
 6155WAT      O18866   1.506   1.232   4.268  0.1090 -0.1865  0.1702
 6155WAT     H118867   1.529   1.315   4.225  0.5244 -0.3639  0.0364
 6155WAT     H218868   1.417   1.244   4.298  0.1086  0.2523  0.0028
 6156WAT      O18869   1.130   4.947   2.863  0.6824  0.1167 -0.8552
 6156WAT     H118870   1.194   5.000   2.910  0.4838  0.4416 -0.9503
 6156WAT     H218871   1.045   4.982   2.889  0.5786  1.0780 -2.3348
 6157WAT      O18872   4.255   6.888   0.402  0.6357  0.0736  0.0261
 6157WAT     H118873   4.257   6.794   0.421 -1.8410 -0.2488 -0.9237
 6157WAT     H218874   4.299   6.896   0.317 -2.0636 -0.8182 -1.5787
 6158WAT      O18875   1.081   0.140   1.602 -0.8275  0.8474  0.1116
 6158WAT     H118876   1.077   0.115   1.695 -0.9711 -2.4502 -0.6498
 6158WAT     H218877   1.004   0.195   1.589 -2.5259 -1.0581  1.4006
 6159WAT      O18878   0.793   6.089   4.035 -0.2060 -0.2996 -0.0457
 6159WAT     H118879   0.792   6.034   4.113  1.6297 -1.7735 -0.9762
 6159WAT     H218880   0.811   6.028   3.963  2.5319  1.5484 -1.0807
 6160WAT      O18881   0.985   4.988   0.906  0.1548 -0.0077  0.2073
 6160WAT     H118882   1.077   4.981   0.932  0.5249 -0.0266 -1.0054
 6160WAT     H218883   0.936   4.947   0.977  1.0212  0.6278  1.2012
 6161WAT      O18884   7.261   0.201   0.815 -0.1343 -0.3183 -0.0510
 6161WAT     H118885   7.171   0.191   0.845 -0.8124 -1.9124 -2.3771
 6161WAT     H218886   7.298   0.113   0.817  0.7166 -0.0067 -1.0341
 6162WAT      O18887   7.185   6.483   2.427 -0.4885  0.1099  0.2640
 6162WAT     H118888   7.218   6.394   2.430  0.8869  0.6023  0.5663
 6162WAT     H218889   7.117   6.486   2.494 -0.0124 -0.5099  0.7881
 6163WAT      O18890   3.218   6.243   4.810 -0.2212 -0.6571 -0.1601
 6163WAT     H118891   3.277   6.225   4.883 -0.9472  1.0958  0.9121
 6163WAT     H218892   3.263   6.312   4.760  0.2148 -1.7552 -1.3508
 6164WAT      O18893   3.600   1.881   1.360  0.0885 -0.5819 -0.1610
 6164WAT     H118894   3.624   1.788   1.364  0.9752 -0.3178  1.2687
 6164WAT     H218895   3.651   1.922   1.429 -1.1852  0.7944  0.0140
 6165WAT      O18896   3.260   6.340   0.963 -0.1217  0.5122 -0.4379
 6165WAT     H118897   3.210   6.260   0.948  0.9913 -0.1135 -0.9619
 6165WAT     H218898   3.273   6.342   1.058 -1.2271  0.7529 -0.2799
 6166WAT      O18899   1.963   6.289   3.067 -0.3811 -0.4271 -0.0415
 6166WAT     H118900   2.036   6.318   3.122 -0.3743 -0.4957 -0.0129
 6166WAT     H218901   1.929   6.369   3.027 -1.3239 -0.1725  1.2124
 6167WAT      O18902   3.877   4.166   0.959 -0.1042  0.1512 -0.2668
 6167WAT     H118903   3.907   4.239   0.905  2.3720 -0.4451  0.1695
 6167WAT     H218904   3.847   4.206   1.040  2.6525  0.7005  0.5910
 6168WAT      O18905   5.373   4.018   3.760  0.5368  0.1190  0.1283
 6168WAT     H118906   5.388   4.068   3.840 -0.1054  0.4819  0.0290
 6168WAT     H218907   5.442   4.046   3.700  0.6199  0.3369  0.3276
 6169WAT      O18908   3.372   7.011   1.753 -0.1588  0.2844  0.3752
 6169WAT     H118909   3.429   6.934   1.757 -0.8682 -0.2148  1.9136
 6169WAT     H218910   3.391   7.059   1.834 -0.3622  1.2725 -0.1491
 6170WAT      O18911   3.902   3.525   1.592 -0.1647  0.2544  0.3610
 6170WAT     H118912   3.911   3.431   1.610 -0.1589  0.0600 -0.6230
 6170WAT     H218913   3.857   3.560   1.669 -1.1229 -0.7395  0.2803
 6171WAT      O18914   7.375   4.972   0.382 -0.2348  0.6687 -0.4660
 6171WAT     H118915   7.388   4.932   0.297  1.3257  1.2117 -0.5039
 6171WAT     H218916   7.296   5.025   0.372 -0.6465 -0.0704 -1.2558
 6172WAT      O18917   2.950   3.637   5.497 -0.5976 -0.4672  0.0622
 6172WAT     H118918   2.979   3.592   5.576  0.7187 -0.4590 -0.3764
 6172WAT     H218919   2.950   3.730   5.521 -0.3822 -0.4783  0.1068
 6173WAT      O18920   4.261   4.184   3.683  0.6969  0.0844 -0.2394
 6173WAT     H118921   4.259   4.183   3.779 -2.4121  0.9139 -0.1889
 6173WAT     H218922   4.172   4.163   3.657  2.0357 -3.1349 -3.1195
 6174WAT      O18923   3.727   4.510   5.297 -0.4913  0.4223 -0.0108
 6174WAT     H118924   3.633   4.504   5.278 -0.6971 -0.0848  1.0891
 6174WAT     H218925   3.745   4.433   5.351  0.6748  0.2385 -0.6402
 6175WAT      O18926   1.717   0.833   0.901 -0.1485 -0.0190  0.0284
 6175WAT     H118927   1.795   0.856   0.952  0.7345  0.4041 -1.4547
 6175WAT     H218928   1.653   0.901   0.924  0.8126  1.1531 -0.6781
 6176WAT      O18929   0.189   5.877   3.111 -0.1574 -0.0884  0.3352
 6176WAT     H118930   0.105   5.831   3.120 -0.4096  0.5463  1.4473
 6176WAT     H218931   0.255   5.808   3.109 -0.7292 -0.6268 -1.1102
 6177WAT      O18932   0.654   5.474   3.679  0.0426 -0.0400  0.2025
 6177WAT     H118933   0.671   5.552   3.732  1.6824 -1.2705  1.6029
 6177WAT     H218934   0.618   5.410   3.741  0.1849 -0.8962 -0.5743
 6178WAT      O18935   5.297   1.223   4.395 -0.0430  0.3413 -0.0266
 6178WAT     H118936   5.256   1.308   4.382  0.3513  0.9626  2.3409
 6178WAT     H218937   5.353   1.235   4.472  0.3320 -1.9344  0.1173
 6179WAT      O18938   0.857   1.729   2.534  0.2012 -0.0210  0.0391
 6179WAT     H118939   0.869   1.725   2.628 -1.3097 -4.2719  0.2806
 6179WAT     H218940   0.945   1.717   2.498  0.5448 -0.2737  0.9412
 6180WAT      O18941   7.518   2.087   0.017 -0.1895  0.3029 -0.5697
 6180WAT     H118942   7.588   2.146   0.044  0.5254  0.5414 -2.7744
 6180WAT     H218943   7.561   2.002   0.007 -0.9847 -0.4191  1.4640
 6181WAT      O18944   0.253   0.082   2.694  0.1473 -0.0826 -0.1345
 6181WAT     H118945   0.162   0.102   2.669 -0.5552 -3.1498 -0.4624
 6181WAT     H218946   0.247   0.001   2.743  2.7754 -0.5772 -0.4870
 6182WAT      O18947   1.778   0.556   2.674 -0.4426  0.4683 -0.3778
 6182WAT     H118948   1.752   0.593   2.758  2.7797  1.2276  0.4267
 6182WAT     H218949   1.850   0.612   2.644  0.5021 -1.5404 -2.1406
 6183WAT      O18950   0.481   6.442   1.469 -0.1082 -0.2668  0.0909
 6183WAT     H118951   0.496   6.532   1.440  1.0447 -0.9412 -1.6326
 6183WAT     H218952   0.569   6.407   1.484 -0.5400 -1.1144  0.7075
 6184WAT      O18953   5.650   0.831   5.741 -0.0451 -0.2380  0.3334
 6184WAT     H118954   5.679   0.764   5.678 -0.6242 -1.1086  0.9589
 6184WAT     H218955   5.720   0.896   5.741  0.3032 -0.5907 -0.6665
 6185WAT      O18956   7.470   2.760   5.670  0.1345 -0.0823 -0.3887
 6185WAT     H118957   7.385   2.775   5.628  0.2694 -1.4000 -1.1901
 6185WAT     H218958   7.449   2.706   5.746  0.1659  0.2506 -0.1437
 6186WAT      O18959   7.182   0.802   1.742 -0.2577  0.6558 -1.1213
 6186WAT     H118960   7.251   0.862   1.772 -1.3479  1.3413  0.1229
 6186WAT     H218961   7.176   0.736   1.811  0.7612 -0.8205 -2.3680
 6187WAT      O18962   5.836   3.980   3.895  0.2677  0.0439  0.0738
 6187WAT     H118963   5.915   3.950   3.939 -0.7309 -2.0580  0.5597
 6187WAT     H218964   5.792   4.036   3.958  0.7247  0.1574  0.2922
 6188WAT      O18965   0.478   2.319   5.139 -0.1096 -0.4584  0.1331
 6188WAT     H118966   0.523   2.371   5.205  2.0149 -1.6315 -0.3051
 6188WAT     H218967   0.546   2.262   5.103 -1.9844 -2.4192 -0.5020
 6189WAT      O18968   7.251   3.034   4.880 -0.4155  0.0395 -0.1714
 6189WAT     H118969   7.243   3.107   4.941 -1.4158  1.1116 -1.5162
 6189WAT     H218970   7.210   2.960   4.924 -1.8716  0.9989  0.1304
 6190WAT      O18971   3.874   2.915   0.361 -0.9586 -0.2355 -0.1069
 6190WAT     H118972   3.830   2.965   0.430  0.6977  1.1126  0.0266
 6190WAT     H218973   3.939   2.862   0.407 -1.2405 -0.8940 -0.4590
 6191WAT      O18974   4.454   0.294   3.691  0.1880  0.0172  0.1483
 6191WAT     H118975   4.382   0.244   3.653 -0.6958  1.3072  0.0447
 6191WAT     H218976   4.460   0.262   3.781  0.9193 -1.5964 -0.4500
 6192WAT      O18977   1.610   4.318   0.068  0.0771  0.0568  0.4517
 6192WAT     H118978   1.656   4.399   0.090 -2.1070  1.0595  1.6252
 6192WAT     H218979   1.616   4.265   0.148  3.9132 -2.3471 -1.1133
 6193WAT      O18980   4.921   0.397   2.436 -0.0076 -0.0650  0.2989
 6193WAT     H118981   5.001   0.355   2.468  0.3624  0.4375  0.0455
 6193WAT     H218982   4.948   0.487   2.416 -0.1890 -0.3756 -1.4945
 6194WAT      O18983   1.199   5.130   5.196  0.0768  0.5410 -0.5698
 6194WAT     H118984   1.291   5.146   5.219  0.7119 -2.1947 -0.8120
 6194WAT     H218985   1.170   5.065   5.260 -1.2871  0.3980 -1.3030
 6195WAT      O18986   0.594   2.219   3.176  0.5412 -0.4364  0.0058
 6195WAT     H118987   0.680   2.177   3.167  0.2550 -1.0291 -0.0378
 6195WAT     H218988   0.613   2.303   3.217  1.1435 -0.5697  0.0160
 6196WAT      O18989   3.355   1.610   2.040 -0.3728 -0.9669  0.5740
 6196WAT     H118990   3.345   1.615   1.945 -1.4766 -2.8036  0.5572
 6196WAT     H218991   3.290   1.671   2.075  1.3915  1.2752  0.1914
 6197WAT      O18992   0.374   4.388   2.656 -0.1359 -0.3141 -0.3687
 6197WAT     H118993   0.398   4.368   2.566  0.4577 -0.2978 -0.2180
 6197WAT     H218994   0.429   4.463   2.680  1.4382 -1.7513  0.7663
 6198WAT      O18995   3.031   0.406   3.604 -0.1316  0.0291 -0.4554
 6198WAT     H118996   3.007   0.400   3.696  1.7571  0.1892  0.0785
 6198WAT     H218997   2.981   0.481   3.571  1.1482  1.6379  1.1226
 6199WAT      O18998   3.072   1.633   3.289 -0.2183 -0.7316 -0.1627
 6199WAT     H118999   3.018   1.609   3.365  0.1460  0.1605  0.3858
 6199WAT     H219000   3.157   1.592   3.306  0.1909  0.3521  0.4362
 6200WAT      O19001   1.320   3.039   0.026  0.0574 -0.6232 -0.0368
 6200WAT     H119002   1.231   3.035   0.060 -0.0709  0.6456 -0.1756
 6200WAT     H219003   1.334   3.131   0.005  1.0347 -0.9663 -1.0074
 6201WAT      O19004   0.679   1.612   2.353  0.0216 -0.8691 -0.0052
 6201WAT     H119005   0.680   1.516   2.352  0.3562 -0.8844 -1.6846
 6201WAT     H219006   0.739   1.636   2.423 -1.5202 -1.8590  1.7300
 6202WAT      O19007   3.495   0.289   1.360  0.0605  0.7118 -0.2642
 6202WAT     H119008   3.517   0.196   1.366 -1.4241  0.3705  0.5375
 6202WAT     H219009   3.530   0.327   1.441 -1.5461  0.3043  0.6743
 6203WAT      O19010   4.137   4.082   2.982 -0.0399 -0.3048 -0.2528
 6203WAT     H119011   4.186   4.030   2.919 -0.0772  0.8871 -1.2935
 6203WAT     H219012   4.086   4.144   2.929  0.3435  1.0896  0.9436
 6204WAT      O19013   3.036   6.951   2.316  0.1186 -0.0395 -0.2523
 6204WAT     H119014   3.110   7.010   2.326 -0.8948  1.2576 -0.2403
 6204WAT     H219015   2.991   6.981   2.238  0.2874 -1.6151 -1.0028
 6205WAT      O19016   6.470   6.343   3.997  0.0130  0.6334  0.3351
 6205WAT     H119017   6.468   6.394   4.079 -2.4552 -0.2688  0.9100
 6205WAT     H219018   6.447   6.254   4.024 -1.5957  0.4673 -1.4004
 6206WAT      O19019   1.815   1.513   4.628  0.1517  0.1177 -0.2022
 6206WAT     H119020   1.788   1.447   4.691  0.9710 -0.9813 -0.9639
 6206WAT     H219021   1.894   1.552   4.667  0.3818 -0.2278 -0.3159
 6207WAT      O19022   5.844   0.214   3.845 -0.5637 -0.0134  0.3934
 6207WAT     H119023   5.936   0.194   3.866  0.0339  1.5876 -0.5547
 6207WAT     H219024   5.819   0.282   3.907 -0.2359  1.4488 -1.0157
 6208WAT      O19025   5.583   3.928   0.138 -0.1495  0.3902  0.6931
 6208WAT     H119026   5.582   3.946   0.232  0.7815 -1.7324  1.1624
 6208WAT     H219027   5.492   3.941   0.111 -0.0263  3.3640  1.3315
 6209WAT      O19028   2.042   5.183   4.554  0.5547 -0.0157 -0.3484
 6209WAT     H119029   2.032   5.203   4.461 -2.1274 -0.8059 -0.2959
 6209WAT     H219030   2.035   5.267   4.598  0.5732  0.2180 -0.7898
 6210WAT      O19031   2.778   3.277   5.676 -0.3111  0.4893  0.4411
 6210WAT     H119032   2.755   3.365   5.707  0.6186  0.9169 -0.0432
 6210WAT     H219033   2.755   3.277   5.583  2.3318  1.2403 -0.2952
 6211WAT      O19034   7.437   6.392   4.501 -0.1425  1.0134  0.2071
 6211WAT     H119035   7.482   6.460   4.451  0.8459  0.5105  0.3772
 6211WAT     H219036   7.379   6.350   4.438 -0.4546  1.7337  0.0026
 6212WAT      O19037   0.163   0.564   1.994 -0.4245 -0.1165 -0.1823
 6212WAT     H119038   0.211   0.534   1.917 -0.2207  0.6237 -0.3527
 6212WAT     H219039   0.209   0.523   2.068  1.4187  1.6593 -0.2272
 6213WAT      O19040   2.376   2.653   4.662  0.1823 -0.2558 -0.0075
 6213WAT     H119041   2.283   2.676   4.664 -0.0129 -0.7591 -1.5662
 6213WAT     H219042   2.399   2.635   4.753 -2.2931 -4.1127  0.1004
 6214WAT      O19043   7.297   5.028   4.957  0.2509  0.5001 -0.2396
 6214WAT     H119044   7.281   5.039   5.051 -0.1945 -1.0485 -0.1151
 6214WAT     H219045   7.386   4.993   4.951 -0.5935 -1.8450 -0.1801
 6215WAT      O19046   3.694   5.109   1.262  0.1905 -0.0651  0.3699
 6215WAT     H119047   3.680   5.186   1.208  2.3597 -0.1160 -0.3398
 6215WAT     H219048   3.768   5.132   1.318  1.3941 -1.8609 -0.3962
 6216WAT      O19049   5.991   1.587   1.441 -0.4251 -0.2130 -0.0429
 6216WAT     H119050   5.968   1.667   1.488  0.8415  0.7097 -0.9176
 6216WAT     H219051   5.963   1.603   1.351 -0.9117 -1.1030 -0.0661
 6217WAT      O19052   1.617   4.177   3.037 -0.9317 -0.3612 -0.0257
 6217WAT     H119053   1.648   4.092   3.067 -0.0260  0.0858  0.3191
 6217WAT     H219054   1.521   4.168   3.036 -0.8422 -1.4643 -0.2542
 6218WAT      O19055   3.066   6.044   3.441 -0.0123  0.1299  0.1839
 6218WAT     H119056   3.148   6.091   3.456 -0.8844  1.1601  2.0459
 6218WAT     H219057   3.081   5.957   3.475  0.8657 -0.2764 -1.1627
 6219WAT      O19058   4.845   1.742   3.013  0.1636 -0.0588  0.5086
 6219WAT     H119059   4.865   1.768   3.103  0.5202  0.3778  0.3084
 6219WAT     H219060   4.889   1.807   2.959  2.8509 -2.1902 -0.0926
 6220WAT      O19061   4.737   3.167   1.926  0.4806  0.0800  0.0112
 6220WAT     H119062   4.669   3.225   1.959  0.2132 -1.3522  2.1841
 6220WAT     H219063   4.723   3.165   1.831 -1.0993  1.5196  0.1634
 6221WAT      O19064   2.951   5.471   1.532  0.2363 -0.5349  0.1302
 6221WAT     H119065   2.975   5.555   1.571  0.7777 -0.9049  0.6206
 6221WAT     H219066   2.867   5.487   1.490  1.1626  0.7356 -1.3585
 6222WAT      O19067   7.100   1.056   1.584  0.3176  0.7515 -0.4194
 6222WAT     H119068   7.112   0.985   1.647 -1.0311  0.7217 -0.1695
 6222WAT     H219069   7.099   1.135   1.638 -0.0998  0.7860 -0.4714
 6223WAT      O19070   3.954   3.490   4.147 -0.2049  0.0274 -1.0335
 6223WAT     H119071   3.980   3.486   4.239  0.2918  0.2214 -1.1640
 6223WAT     H219072   4.027   3.533   4.103 -0.8122  0.7272 -1.3796
 6224WAT      O19073   1.074   2.983   5.491  0.2653 -0.4367 -0.2951
 6224WAT     H119074   1.163   2.949   5.504 -0.2264 -1.3759  0.7643
 6224WAT     H219075   1.040   2.993   5.580 -0.7927 -0.3741 -0.7023
 6225WAT      O19076   4.949   1.853   0.835  0.3392 -0.1628 -0.8486
 6225WAT     H119077   4.862   1.882   0.808  0.3126  1.7450  1.0441
 6225WAT     H219078   4.957   1.884   0.925  2.4381 -1.5710 -0.4993
 6226WAT      O19079   3.725   1.075   5.751 -0.2742  0.1561  0.4602
 6226WAT     H119080   3.772   1.158   5.737 -0.4827  0.7030  2.6559
 6226WAT     H219081   3.643   1.100   5.792 -2.1101 -0.8953 -2.2991
 6227WAT      O19082   5.557   4.086   1.950 -0.0742 -0.3449  0.2763
 6227WAT     H119083   5.463   4.094   1.964 -0.4775 -1.3445 -1.5691
 6227WAT     H219084   5.581   4.163   1.898  0.0885 -0.1910  0.5783
 6228WAT      O19085   5.128   3.117   0.714 -0.4153  0.2251  0.1389
 6228WAT     H119086   5.086   3.181   0.656 -0.2869  1.0789  0.9526
 6228WAT     H219087   5.055   3.064   0.747 -0.3484 -1.1546 -1.8018
 6229WAT      O19088   6.250   6.809   4.304 -0.3315 -0.4257 -1.1296
 6229WAT     H119089   6.198   6.745   4.354 -0.7730 -1.1680 -2.4908
 6229WAT     H219090   6.339   6.799   4.337 -0.8174  0.0048  0.3925
 6230WAT      O19091   5.249   6.068   2.947  0.1843  0.3290  0.3710
 6230WAT     H119092   5.330   6.049   2.994 -0.0967  0.1400  0.7906
 6230WAT     H219093   5.181   6.064   3.014 -0.1495  0.6753  0.0583
 6231WAT      O19094   3.018   5.777   3.929 -0.2811 -0.0228  0.1004
 6231WAT     H119095   3.061   5.861   3.911  0.1780 -0.1111  0.7457
 6231WAT     H219096   3.052   5.718   3.861  0.6233 -0.0871  0.5894
 6232WAT      O19097   0.476   0.125   1.755  0.3388  0.5479 -0.0358
 6232WAT     H119098   0.458   0.219   1.756  1.3629  0.7527 -0.0279
 6232WAT     H219099   0.547   0.113   1.818 -0.3284 -0.3589  0.5796
 6233WAT      O19100   2.427   6.487   2.345 -0.1088  0.0428  0.1547
 6233WAT     H119101   2.491   6.437   2.396 -1.0107 -0.1311  1.1643
 6233WAT     H219102   2.353   6.427   2.336  0.2071 -0.1221 -1.8421
 6234WAT      O19103   3.762   0.261   2.552 -0.1316  0.0193 -0.2776
 6234WAT     H119104   3.745   0.355   2.550  1.5997  0.3567 -0.9249
 6234WAT     H219105   3.836   0.251   2.612  0.1419 -0.8529 -0.7440
 6235WAT      O19106   1.749   0.579   1.053  0.1004  0.1095  0.6843
 6235WAT     H119107   1.727   0.659   1.101  1.3463  0.1520  1.2368
 6235WAT     H219108   1.794   0.524   1.118 -1.7348 -1.5521  0.6422
 6236WAT      O19109   2.896   1.338   5.857 -0.0591 -0.5241 -0.5770
 6236WAT     H119110   2.975   1.301   5.896 -1.0077  0.0419  2.0869
 6236WAT     H219111   2.828   1.273   5.874 -0.5936 -0.0526 -0.8880
 6237WAT      O19112   2.222   5.304   1.818  0.0435 -0.4537  0.5263
 6237WAT     H119113   2.201   5.220   1.858  0.2558 -0.9426 -0.3587
 6237WAT     H219114   2.176   5.303   1.734  1.0277 -0.2087 -0.0326
 6238WAT      O19115   6.216   0.901   5.656 -0.5409  0.0549  0.0650
 6238WAT     H119116   6.159   0.896   5.733 -1.1713  0.6359 -0.3451
 6238WAT     H219117   6.305   0.903   5.692 -0.8469  0.8597  0.8119
 6239WAT      O19118   6.789   0.435   3.938 -0.0183 -0.0925  0.0170
 6239WAT     H119119   6.738   0.384   4.001  0.0302 -0.1910 -0.0227
 6239WAT     H219120   6.791   0.379   3.860  0.9474 -0.5005  0.3228
 6240WAT      O19121   5.497   7.115   0.031 -0.0841  0.0969  0.2232
 6240WAT     H119122   5.505   7.039   0.089 -0.3525  1.5302  2.2412
 6240WAT     H219123   5.407   7.146   0.044  0.2004  1.1047 -0.1347
 6241WAT      O19124   1.202   0.185   5.048 -0.2898 -0.5727 -0.0038
 6241WAT     H119125   1.276   0.241   5.071 -0.7240  0.4256 -0.9466
 6241WAT     H219126   1.214   0.106   5.100  0.7440  0.0984  0.8046
 6242WAT      O19127   7.402   2.971   1.293  0.5137 -0.1068  0.3654
 6242WAT     H119128   7.387   2.927   1.377  1.1429  0.1097  0.5938
 6242WAT     H219129   7.320   3.018   1.276  0.3643 -0.1940  0.8323
 6243WAT      O19130   0.198   2.561   1.710 -0.2403  0.4303 -0.2634
 6243WAT     H119131   0.269   2.621   1.732  0.0389  0.1318 -0.3418
 6243WAT     H219132   0.242   2.481   1.682 -0.6056 -0.5308  1.7382
 6244WAT      O19133   3.661   5.653   4.563  0.0806 -0.4354  0.5292
 6244WAT     H119134   3.754   5.663   4.581 -0.0832  1.0919  0.6993
 6244WAT     H219135   3.619   5.720   4.617 -1.2480 -1.8969  1.3980
 6245WAT      O19136   0.194   1.600   5.316  0.0031  0.1579  0.4963
 6245WAT     H119137   0.196   1.557   5.401  0.7585 -1.5943 -0.3666
 6245WAT     H219138   0.101   1.617   5.299 -0.5756 -3.0195 -0.0107
 6246WAT      O19139   4.491   1.362   4.104 -0.0899 -0.0801 -0.1884
 6246WAT     H119140   4.436   1.438   4.126 -0.7640 -0.6127  0.0162
 6246WAT     H219141   4.461   1.293   4.164  2.0373  0.1180  1.1890
 6247WAT      O19142   3.597   6.996   5.038 -0.4025  0.3496  0.5211
 6247WAT     H119143   3.551   7.075   5.010  0.9975  2.0864  2.7542
 6247WAT     H219144   3.690   7.015   5.023 -0.1076 -1.4225 -0.0903
 6248WAT      O19145   6.082   4.048   2.601 -0.2148  0.6578 -0.6151
 6248WAT     H119146   6.162   4.006   2.632 -0.9916 -0.1921  0.3079
 6248WAT     H219147   6.048   4.094   2.677 -0.5040  1.1965 -1.0596
 6249WAT      O19148   0.891   5.941   5.838 -0.4113 -0.1039 -0.9634
 6249WAT     H119149   0.980   5.954   5.803  0.2353 -1.1344  0.2074
 6249WAT     H219150   0.879   5.846   5.840 -0.8783 -0.0482  0.4187
 6250WAT      O19151   5.186   0.710   2.587  0.9672 -0.0117  0.1326
 6250WAT     H119152   5.160   0.796   2.618 -1.2658 -0.7424  0.4494
 6250WAT     H219153   5.157   0.649   2.655 -1.6575 -1.4037 -2.0243
 6251WAT      O19154   5.845   7.041   4.633 -0.1633  0.0588  0.1244
 6251WAT     H119155   5.855   6.964   4.577  0.1835 -0.3393  0.7240
 6251WAT     H219156   5.750   7.053   4.639 -0.2150 -0.1498 -0.2007
 6252WAT      O19157   0.029   4.260   1.309  0.4014  0.3158  0.0793
 6252WAT     H119158   0.111   4.233   1.351  1.0848 -0.7315 -1.7910
 6252WAT     H219159  -0.025   4.292   1.381  1.7933 -0.6109  1.6204
 6253WAT      O19160   3.260   2.482   1.574  0.1052  0.1617 -0.2063
 6253WAT     H119161   3.190   2.434   1.529  0.7658 -1.3985  0.3904
 6253WAT     H219162   3.232   2.484   1.666  1.2713 -1.3095  0.2039
 6254WAT      O19163   0.759   2.239   4.357 -0.0207 -0.1419  0.5247
 6254WAT     H119164   0.762   2.269   4.448  0.8025 -0.4700  0.6142
 6254WAT     H219165   0.849   2.250   4.325 -0.7150  1.9308 -0.9137
 6255WAT      O19166   2.805   0.154   4.031  0.8006  0.9856  0.1755
 6255WAT     H119167   2.722   0.189   4.064  0.4896  1.4615 -1.0535
 6255WAT     H219168   2.859   0.144   4.109 -1.1593 -1.5757  1.3834
 6256WAT      O19169   7.312   1.919   3.084 -0.4887 -0.2622 -0.1878
 6256WAT     H119170   7.257   1.964   3.149 -0.9643 -0.9044 -0.1437
 6256WAT     H219171   7.361   1.855   3.135 -1.8183 -1.6792 -0.6165
 6257WAT      O19172   0.241   6.436   4.735  0.1916  0.8834 -0.0969
 6257WAT     H119173   0.298   6.507   4.765 -0.2637  1.8552 -1.4176
 6257WAT     H219174   0.168   6.436   4.797  1.0160  0.4216  0.9030
 6258WAT      O19175   7.007   3.673   1.371  0.2722 -0.2985 -0.5255
 6258WAT     H119176   7.087   3.723   1.386  0.8151 -1.0931 -0.7270
 6258WAT     H219177   6.936   3.734   1.393  0.9130  0.5909 -0.8643
 6259WAT      O19178   5.122   0.709   3.891  0.6918 -0.4663  0.7678
 6259WAT     H119179   5.031   0.733   3.907  0.8755  0.2957  0.6654
 6259WAT     H219180   5.167   0.730   3.973  0.8947 -0.2620  0.6030
 6260WAT      O19181   4.853   5.320   0.988 -0.7281 -0.1229  0.4138
 6260WAT     H119182   4.833   5.249   0.926 -0.0615  0.7289 -0.8287
 6260WAT     H219183   4.939   5.299   1.022  0.3187  0.9867 -1.3792
 6261WAT      O19184   0.771   3.368   0.660 -0.2791 -0.0205 -0.1390
 6261WAT     H119185   0.805   3.316   0.733  0.6576  0.3253 -0.3148
 6261WAT     H219186   0.790   3.459   0.683  1.3280  0.0285 -1.4021
 6262WAT      O19187   5.756   4.744   0.291  0.1179 -0.0564 -0.0777
 6262WAT     H119188   5.721   4.797   0.363  0.9186  1.2306 -0.6013
 6262WAT     H219189   5.781   4.808   0.224 -0.3302 -1.2105 -1.3861
 6263WAT      O19190   5.073   4.465   2.193 -0.1600 -0.4310 -0.2768
 6263WAT     H119191   4.982   4.460   2.224 -0.2173 -0.2097 -0.4113
 6263WAT     H219192   5.125   4.465   2.273 -0.4078  3.3892  0.0465
 6264WAT      O19193   4.225   2.556   3.076 -0.9016  0.0761  0.4014
 6264WAT     H119194   4.158   2.576   3.010 -1.4791  0.1300  0.9955
 6264WAT     H219195   4.215   2.626   3.141 -0.0148  0.2954  0.3087
 6265WAT      O19196   2.051   1.620   1.996  0.2711  0.2880  0.2651
 6265WAT     H119197   1.997   1.686   1.951  0.6829  0.6429  0.2747
 6265WAT     H219198   2.072   1.660   2.080 -0.7432 -0.5021  0.9090
 6266WAT      O19199   6.901   3.693   4.634 -0.3881 -0.6395  0.4740
 6266WAT     H119200   6.982   3.659   4.599  0.0087  0.0449  0.7096
 6266WAT     H219201   6.880   3.634   4.707  0.2042 -0.4868  0.7769
 6267WAT      O19202   1.575   1.755   0.839 -0.0023  0.3461 -0.2818
 6267WAT     H119203   1.657   1.711   0.860  0.3480  0.8089 -0.6372
 6267WAT     H219204   1.555   1.807   0.916  2.6459  4.1019 -1.8243
 6268WAT      O19205   0.206   1.140   5.601  0.1754 -0.0489  0.5609
 6268WAT     H119206   0.276   1.205   5.607  1.3684 -1.1281 -0.8658
 6268WAT     H219207   0.178   1.143   5.510  0.5137 -1.7256  0.3517
 6269WAT      O19208   0.678   3.107   4.060  0.5643 -0.1126  0.0616
 6269WAT     H119209   0.728   3.145   4.133 -0.9331  0.0731  1.0423
 6269WAT     H219210   0.586   3.128   4.081 -0.0338 -1.4863 -1.0416
 6270WAT      O19211   5.197   0.033   1.438 -0.4973  0.2654  0.1793
 6270WAT     H119212   5.124   0.095   1.436  1.1716  2.4030  1.4242
 6270WAT     H219213   5.238   0.046   1.523 -0.5700 -3.2680  0.8918
 6271WAT      O19214   7.239   7.145   5.050 -0.0062  0.0316  0.4808
 6271WAT     H119215   7.296   7.088   4.999 -0.9459 -1.1852  0.7201
 6271WAT     H219216   7.182   7.186   4.986  1.2482  1.4340  0.2173
 6272WAT      O19217   1.893   0.917   3.440 -0.0937 -0.0616  0.0971
 6272WAT     H119218   1.914   0.831   3.474 -0.4774 -0.2623 -0.1675
 6272WAT     H219219   1.944   0.978   3.493  1.5891 -0.5738 -0.8641
 6273WAT      O19220   7.601   6.785   2.309 -0.1440  0.7037 -0.4151
 6273WAT     H119221   7.626   6.768   2.400  1.1832 -0.3129 -0.9420
 6273WAT     H219222   7.593   6.880   2.303  1.1127  0.8761  0.4353
 6274WAT      O19223   1.926   5.110   5.730  0.1058  0.4786 -0.0592
 6274WAT     H119224   1.900   5.167   5.803  0.2350  1.7690 -0.9813
 6274WAT     H219225   2.020   5.095   5.745 -0.2873 -0.9764  1.1429
 6275WAT      O19226   3.716   4.182   2.450  0.0270 -0.3901 -0.1732
 6275WAT     H119227   3.658   4.195   2.374  0.2518  0.1375 -0.2596
 6275WAT     H219228   3.661   4.204   2.525 -0.1371 -0.7236 -0.1906
 6276WAT      O19229   7.392   5.699   1.754 -0.1510 -0.2016  0.5595
 6276WAT     H119230   7.398   5.705   1.849 -1.7966 -0.2224  0.6901
 6276WAT     H219231   7.465   5.752   1.722  0.4140 -0.1752  1.8220
 6277WAT      O19232   6.611   6.857   2.356  0.3682 -0.6217 -0.8491
 6277WAT     H119233   6.693   6.813   2.378  1.0007  1.1782  0.6789
 6277WAT     H219234   6.580   6.893   2.439 -1.9319 -1.1383 -1.4125
 6278WAT      O19235   2.386   6.665   1.848  0.1827 -0.1139 -0.1863
 6278WAT     H119236   2.443   6.716   1.905  0.2068 -0.0257 -0.2885
 6278WAT     H219237   2.382   6.715   1.767 -2.3156  1.3859  0.7512
 6279WAT      O19238   2.849   5.687   3.369  0.5420  0.5741  0.1199
 6279WAT     H119239   2.825   5.683   3.462 -0.3497  1.9636 -0.0280
 6279WAT     H219240   2.943   5.704   3.370  0.6466  0.0161  0.7570
 6280WAT      O19241   6.999   3.619   1.821 -0.0198  0.5688  0.1092
 6280WAT     H119242   7.026   3.534   1.786  1.0069  1.3898 -1.1979
 6280WAT     H219243   6.906   3.625   1.799  0.2012  0.3093 -0.9524
 6281WAT      O19244   1.619   6.703   0.674  0.5346  0.3421  0.2403
 6281WAT     H119245   1.578   6.758   0.607  1.2470  0.9139  0.2583
 6281WAT     H219246   1.618   6.758   0.752 -1.0370 -0.6187  0.9496
 6282WAT      O19247   3.299   1.382   4.850  0.1202 -0.5465  0.1835
 6282WAT     H119248   3.333   1.470   4.832  1.8731 -1.0834  0.6524
 6282WAT     H219249   3.209   1.397   4.880 -0.6310  0.8353 -2.4641
 6283WAT      O19250   0.279   6.786   0.525  0.1216  0.3508  0.2999
 6283WAT     H119251   0.350   6.803   0.587  0.4202 -1.3000  0.4511
 6283WAT     H219252   0.319   6.735   0.455 -0.8004 -0.1298  0.1054
 6284WAT      O19253   7.004   6.572   3.096 -0.1081 -0.0635 -0.0792
 6284WAT     H119254   7.025   6.564   3.003  1.6235  1.4552  0.1205
 6284WAT     H219255   6.909   6.559   3.100 -0.0638 -1.4180 -1.8672
 6285WAT      O19256   6.662   3.047   5.775  0.2156 -0.1498 -0.2153
 6285WAT     H119257   6.601   3.107   5.819  2.8354  3.6682 -1.2113
 6285WAT     H219258   6.637   3.051   5.683 -0.0771 -1.2869 -0.1916
 6286WAT      O19259   1.042   1.070   0.689  0.0490  0.5281  0.0361
 6286WAT     H119260   1.034   1.018   0.769 -0.9020  2.2254  1.0925
 6286WAT     H219261   1.078   1.009   0.624 -0.0178 -1.1302  1.4982
 6287WAT      O19262   0.556   1.056   5.071 -0.0688  0.6431 -0.4125
 6287WAT     H119263   0.511   0.980   5.108  0.2791  0.9304  0.6229
 6287WAT     H219264   0.530   1.056   4.979 -1.0069 -0.0458 -0.1661
 6288WAT      O19265   4.042   0.419   4.174  0.7797 -0.0934  0.0963
 6288WAT     H119266   4.110   0.484   4.192 -0.7665  1.0423  2.2572
 6288WAT     H219267   4.058   0.350   4.238  0.6298 -0.4232 -0.2207
 6289WAT      O19268   0.941   4.934   5.189  0.4852  0.1528  0.4483
 6289WAT     H119269   0.974   4.891   5.269  0.6788  1.0518  0.8660
 6289WAT     H219270   0.848   4.914   5.188  0.4223  0.3798  1.0677
 6290WAT      O19271   6.706   5.404   2.737  0.3210  0.1341  0.3223
 6290WAT     H119272   6.655   5.468   2.786 -0.4143 -0.5922  0.5252
 6290WAT     H219273   6.664   5.320   2.755  2.3168 -0.6813  1.4622
 6291WAT      O19274   6.162   1.938   0.595 -0.8112  0.2215 -0.2737
 6291WAT     H119275   6.190   1.898   0.678  0.0564 -0.5424 -0.9263
 6291WAT     H219276   6.069   1.915   0.588 -0.5843 -0.7593 -0.1124
 6292WAT      O19277   3.700   0.323   5.424 -0.1540  0.6385  0.2709
 6292WAT     H119278   3.778   0.329   5.480  0.4006 -0.7487 -0.3061
 6292WAT     H219279   3.626   0.331   5.485  0.4372  0.4013  1.0374
 6293WAT      O19280   1.118   6.636   6.152 -0.9330 -0.3023 -0.3578
 6293WAT     H119281   1.107   6.636   6.247 -1.0369  1.1074 -0.3567
 6293WAT     H219282   1.042   6.588   6.119 -0.3208 -1.7873  0.3012
 6294WAT      O19283   2.327   0.461   5.086  0.2769 -0.3185 -0.2249
 6294WAT     H119284   2.390   0.526   5.057  0.5127 -0.0231  0.9074
 6294WAT     H219285   2.328   0.466   5.182 -0.9662 -0.7789 -0.1564
 6295WAT      O19286   0.946   4.531   2.552 -0.2675 -0.1360  0.4961
 6295WAT     H119287   0.980   4.572   2.632 -0.5708 -0.3256  0.7246
 6295WAT     H219288   1.011   4.551   2.486  0.0094 -0.0106  0.8020
 6296WAT      O19289   4.152   4.100   2.278  0.8380  0.2600  0.0068
 6296WAT     H119290   4.190   4.016   2.303 -0.2622 -0.4220 -0.5448
 6296WAT     H219291   4.221   4.164   2.297  1.6899 -0.7561  0.4394
 6297WAT      O19292   7.583   4.637   3.956 -0.3262  0.5036 -0.8316
 6297WAT     H119293   7.546   4.571   4.015 -0.2445 -0.0922 -1.4272
 6297WAT     H219294   7.609   4.709   4.013 -4.1437  1.8503 -0.5090
 6298WAT      O19295   5.185   5.908   0.334  0.1856 -0.2854 -0.9469
 6298WAT     H119296   5.201   5.912   0.428  0.7700 -0.6661 -1.0288
 6298WAT     H219297   5.272   5.901   0.295 -0.0309  0.1902 -1.5341
 6299WAT      O19298   6.434   4.227   4.830  0.1250 -0.6014  0.1465
 6299WAT     H119299   6.374   4.181   4.890 -1.2178  1.2001  0.2513
 6299WAT     H219300   6.431   4.175   4.750 -1.1885 -0.8320  0.3197
 6300WAT      O19301   4.582   2.625   2.248  0.0995 -0.3477 -0.4783
 6300WAT     H119302   4.614   2.696   2.192  2.0975 -0.7758  0.0435
 6300WAT     H219303   4.500   2.598   2.207  0.8176  0.2446 -2.4307
 6301WAT      O19304   0.769   0.838   2.031  0.4689 -0.0280  0.1830
 6301WAT     H119305   0.742   0.910   2.089 -0.6824 -0.5782  0.3698
 6301WAT     H219306   0.859   0.820   2.056  0.9039  1.5758 -0.1129
 6302WAT      O19307   1.548   4.463   2.127  0.0060 -0.2393 -0.2436
 6302WAT     H119308   1.501   4.387   2.091  0.7920 -1.0029  0.2970
 6302WAT     H219309   1.626   4.425   2.168 -1.0617  0.5059  2.6675
 6303WAT      O19310   2.082   5.051   6.185  0.0077  0.8335 -0.8918
 6303WAT     H119311   2.005   4.995   6.189  0.9526 -0.4499  0.9735
 6303WAT     H219312   2.097   5.078   6.275  2.2361  0.2974 -1.0414
 6304WAT      O19313   0.279   6.457   3.305  0.4060 -0.4683  0.4824
 6304WAT     H119314   0.300   6.550   3.304  2.1870 -0.8406  0.1058
 6304WAT     H219315   0.201   6.449   3.251  0.5129  0.7379  0.1338
 6305WAT      O19316   3.840   3.466   4.705 -0.3059  0.1883 -0.1159
 6305WAT     H119317   3.917   3.429   4.661  0.2689  0.5189  0.5878
 6305WAT     H219318   3.859   3.455   4.799 -1.7542 -1.0163  0.0645
 6306WAT      O19319   0.105   6.446   3.111 -0.1397 -0.0411  0.5511
 6306WAT     H119320   0.110   6.363   3.063 -1.1497  0.4217 -0.4157
 6306WAT     H219321   0.011   6.461   3.122 -0.0314  1.5519 -0.3624
 6307WAT      O19322   1.695   2.085   3.264  0.0025  0.0564  0.2754
 6307WAT     H119323   1.646   2.161   3.232  0.9257  1.2432  1.5408
 6307WAT     H219324   1.629   2.028   3.304 -0.8173 -0.2531 -1.4300
 6308WAT      O19325   1.709   0.289   0.525  0.5532 -0.0631 -0.0167
 6308WAT     H119326   1.666   0.262   0.606 -1.1602  1.9360 -0.1520
 6308WAT     H219327   1.691   0.218   0.463  0.2912 -0.7667  0.8490
 6309WAT      O19328   4.099   1.010   4.207 -0.5041 -0.0477 -0.4351
 6309WAT     H119329   4.101   0.950   4.132  0.4186  0.5308 -0.8989
 6309WAT     H219330   4.153   0.967   4.273  0.4129  0.3989 -0.8805
 6310WAT      O19331   5.334   1.863   5.165  0.1005 -0.4035  0.5692
 6310WAT     H119332   5.422   1.899   5.158  0.3418 -1.1336 -0.4586
 6310WAT     H219333   5.314   1.866   5.258  1.4648 -0.8052  0.8978
 6311WAT      O19334   6.373   3.578   4.160  0.5981 -0.5489  0.0608
 6311WAT     H119335   6.437   3.515   4.191  1.4036  1.0400  1.8306
 6311WAT     H219336   6.288   3.539   4.181  1.0797 -1.0329  1.1782
 6312WAT      O19337   6.856   5.906   2.450 -0.1898  0.0773 -0.6764
 6312WAT     H119338   6.928   5.914   2.388  0.2087 -0.1902 -0.2582
 6312WAT     H219339   6.896   5.866   2.528 -0.6304  0.6067 -0.1699
 6313WAT      O19340   5.740   6.816   4.852  0.6229 -0.1044  0.9371
 6313WAT     H119341   5.750   6.750   4.921  1.3213 -2.0380 -0.9200
 6313WAT     H219342   5.735   6.766   4.771  0.9166  2.1288 -0.5537
 6314WAT      O19343   3.167   3.145   2.911 -0.3371  0.2234  0.0700
 6314WAT     H119344   3.085   3.125   2.866  1.0429 -3.6431 -1.1519
 6314WAT     H219345   3.152   3.114   3.001  0.1004 -1.8466 -0.5062
 6315WAT      O19346   1.257   1.309   4.372 -0.8454 -0.6574 -0.0816
 6315WAT     H119347   1.272   1.402   4.354  2.3706 -0.6195  2.0342
 6315WAT     H219348   1.198   1.308   4.447 -0.9728 -0.3684 -0.1761
 6316WAT      O19349   3.988   7.127   2.880  0.2618 -0.2233  0.4266
 6316WAT     H119350   3.994   7.190   2.952  2.9881 -0.5330  0.5643
 6316WAT     H219351   4.050   7.160   2.814 -0.5865 -1.1097 -0.8619
 6317WAT      O19352   2.460   6.990   0.629 -0.2368 -0.1888 -0.1786
 6317WAT     H119353   2.419   6.929   0.691 -0.3300  0.6630  0.6171
 6317WAT     H219354   2.387   7.044   0.598  0.0362  0.3256  0.0670
 6318WAT      O19355   7.491   0.370   4.489  0.0502  0.2310  0.0330
 6318WAT     H119356   7.408   0.347   4.448  0.5422 -0.5795 -0.5360
 6318WAT     H219357   7.540   0.415   4.420  0.3326  0.1223  0.1608
 6319WAT      O19358   2.934   6.371   2.163  0.0467 -0.3320  0.1946
 6319WAT     H119359   3.024   6.352   2.188  1.1855  2.1259 -1.7280
 6319WAT     H219360   2.913   6.305   2.097  1.3783  0.5914 -1.1981
 6320WAT      O19361   2.623   4.657   0.918 -0.1299 -0.3860  0.3614
 6320WAT     H119362   2.715   4.640   0.937  0.0284  0.7138  0.6568
 6320WAT     H219363   2.586   4.686   1.002 -0.4412  0.4035 -0.0357
 6321WAT      O19364   1.431   1.395   4.030  0.4290  0.4123  0.2817
 6321WAT     H119365   1.436   1.471   4.087  1.1901  0.1235  0.6045
 6321WAT     H219366   1.424   1.431   3.942 -0.0884  0.8561  0.4997
 6322WAT      O19367   0.984   3.598   2.488  0.1816 -0.3052 -0.0073
 6322WAT     H119368   0.900   3.577   2.529  0.5519 -1.0678  0.3629
 6322WAT     H219369   1.028   3.654   2.552  1.2606 -2.4506  1.2306
 6323WAT      O19370   6.401   2.680   3.548  0.2456  0.1599 -0.5277
 6323WAT     H119371   6.463   2.742   3.587 -0.0965  0.2993 -0.1989
 6323WAT     H219372   6.433   2.668   3.458  1.6055 -0.9143  0.0681
 6324WAT      O19373   6.051   4.860   5.936 -0.3718  0.3436  0.3292
 6324WAT     H119374   6.018   4.785   5.987  0.2054 -0.3619 -0.3033
 6324WAT     H219375   6.144   4.863   5.957  0.3559 -1.2750 -2.1990
 6325WAT      O19376   5.954   6.258   5.762  0.6553  0.0925  0.3988
 6325WAT     H119377   6.032   6.238   5.812 -0.3156  0.7765  2.2615
 6325WAT     H219378   5.929   6.346   5.788 -0.5431  0.0261 -0.4072
 6326WAT      O19379   3.676   1.763   0.223  0.1917  0.1801  0.5748
 6326WAT     H119380   3.649   1.786   0.312  0.2377  0.1604  0.5936
 6326WAT     H219381   3.709   1.845   0.186  1.3606 -0.0793  0.9992
 6327WAT      O19382   0.351   4.193   0.462  0.1988  0.2914 -0.4575
 6327WAT     H119383   0.305   4.156   0.386 -1.0886  1.1795 -0.1539
 6327WAT     H219384   0.369   4.283   0.437 -2.7018  1.4914  1.1934
 6328WAT      O19385   6.479   1.851   5.945 -0.5996 -0.3191  0.1854
 6328WAT     H119386   6.423   1.891   6.010  0.4224  0.9895  0.2984
 6328WAT     H219387   6.566   1.887   5.962 -0.1784 -0.4539 -1.4728
 6329WAT      O19388   6.330   6.341   0.099 -0.4093  0.0849 -1.0296
 6329WAT     H119389   6.322   6.259   0.050 -1.4867 -0.4790  0.0537
 6329WAT     H219390   6.405   6.328   0.157  0.0893  0.2890 -1.6124
 6330WAT      O19391   2.426   4.033   0.738 -0.2952 -0.5284 -0.4395
 6330WAT     H119392   2.412   4.106   0.798  0.1216 -0.0950 -0.8654
 6330WAT     H219393   2.436   3.957   0.796  2.5345  0.2433  0.2165
 6331WAT      O19394   4.271   3.349   4.321 -0.2324  0.1131  0.4330
 6331WAT     H119395   4.266   3.344   4.226  0.1124  0.4758  0.3943
 6331WAT     H219396   4.343   3.410   4.339  1.0277 -1.4632  0.9386
 6332WAT      O19397   4.702   6.350   0.073  0.3291  0.3029 -0.5386
 6332WAT     H119398   4.693   6.368   0.166  1.2643  0.0731 -0.3873
 6332WAT     H219399   4.617   6.371   0.035 -0.1776  0.0180  0.4252
 6333WAT      O19400   4.169   1.755   6.147  0.2665  0.5912 -0.3537
 6333WAT     H119401   4.120   1.763   6.229  0.9452  0.5332  0.0664
 6333WAT     H219402   4.224   1.678   6.159  0.1464  0.4003 -0.9914
 6334WAT      O19403   3.766   6.811   0.121 -0.3499 -0.0892 -0.4382
 6334WAT     H119404   3.741   6.764   0.200  0.9000  1.3408  0.8824
 6334WAT     H219405   3.838   6.868   0.148 -2.3947  3.4006 -1.5931
 6335WAT      O19406   2.657   4.972   2.219  0.3234  0.2304  0.4470
 6335WAT     H119407   2.589   4.905   2.210  1.2776 -0.6064 -0.9804
 6335WAT     H219408   2.701   4.951   2.301  0.5309 -0.8512  0.0776
 6336WAT      O19409   2.745   1.767   0.220 -0.4501 -0.5393  0.2092
 6336WAT     H119410   2.755   1.740   0.312  2.2844  1.7721  0.7552
 6336WAT     H219411   2.798   1.704   0.171  0.4015 -0.1496  0.6086
 6337WAT      O19412   1.919   1.766   4.781  0.2029  0.0744  0.2628
 6337WAT     H119413   1.922   1.720   4.865  1.0352  0.4207  0.4353
 6337WAT     H219414   1.924   1.859   4.804 -0.5262  0.2163 -0.1298
 6338WAT      O19415   1.721   2.268   2.865 -0.0799  0.2243  0.6833
 6338WAT     H119416   1.711   2.359   2.892 -0.2480 -0.3815  2.7936
 6338WAT     H219417   1.788   2.233   2.923  1.8528 -0.3989 -1.7214
 6339WAT      O19418   5.078   3.702   4.438 -0.1300  0.7860 -0.3228
 6339WAT     H119419   5.004   3.748   4.477 -1.3903 -1.3023 -0.0937
 6339WAT     H219420   5.038   3.642   4.375  1.4031 -0.1165 -0.4835
 6340WAT      O19421   5.431   5.289   4.697  0.3904  0.1867 -0.4915
 6340WAT     H119422   5.457   5.364   4.643  1.3953 -0.1556 -0.5037
 6340WAT     H219423   5.356   5.320   4.747  1.1412  1.3904 -0.0659
 6341WAT      O19424   6.875   0.245   5.112  0.2343 -0.1597  0.1655
 6341WAT     H119425   6.906   0.155   5.125 -0.0071 -0.0842  1.4764
 6341WAT     H219426   6.834   0.268   5.196 -1.0007  0.6649 -0.6312
 6342WAT      O19427   1.073   6.301   5.236  0.0621 -0.4860  0.1524
 6342WAT     H119428   1.101   6.347   5.157 -0.5132  0.0915  0.2816
 6342WAT     H219429   1.131   6.333   5.305 -0.3010  0.0197  0.2311
 6343WAT      O19430   5.248   4.102   1.231  0.4128 -0.0357 -0.0439
 6343WAT     H119431   5.277   4.015   1.258  0.8565  0.2737  0.5006
 6343WAT     H219432   5.288   4.161   1.295 -3.3979  0.2829  2.3277
 6344WAT      O19433   4.226   5.403   5.419 -0.3789  0.2108  0.2811
 6344WAT     H119434   4.147   5.456   5.413  0.7717  1.9384 -0.2129
 6344WAT     H219435   4.241   5.392   5.513 -1.1387 -0.0783  0.3786
 6345WAT      O19436   3.983   5.555   5.422 -0.2459  0.2720 -0.2152
 6345WAT     H119437   3.901   5.507   5.427 -0.6769  0.9243 -0.8962
 6345WAT     H219438   3.957   5.647   5.422  0.3643  0.4794 -2.2637
 6346WAT      O19439   6.215   4.319   4.176  0.6901 -0.4174  0.2506
 6346WAT     H119440   6.260   4.303   4.093  0.9988  2.2448 -0.1772
 6346WAT     H219441   6.280   4.362   4.231 -0.6561  1.6213  0.3445
 6347WAT      O19442   1.789   6.878   2.355 -0.3715  0.3600  0.2174
 6347WAT     H119443   1.867   6.925   2.327 -0.6150 -0.4918 -2.0739
 6347WAT     H219444   1.717   6.941   2.342 -0.4681  0.0136 -1.0945
 6348WAT      O19445   3.389   3.788   6.179  0.2493 -0.7797 -0.8480
 6348WAT     H119446   3.315   3.748   6.225 -1.8832  1.8701 -1.7041
 6348WAT     H219447   3.371   3.882   6.181  1.2448 -0.2876 -4.8847
 6349WAT      O19448   3.490   2.781   0.957 -0.4956  0.3024 -0.6065
 6349WAT     H119449   3.476   2.710   1.019  0.3508 -0.7087 -1.5309
 6349WAT     H219450   3.442   2.856   0.994 -1.3759 -0.7287  0.4026
 6350WAT      O19451   0.332   0.065   0.219  0.4804 -0.2592 -0.5280
 6350WAT     H119452   0.259   0.027   0.267 -0.2362  0.9325 -0.6430
 6350WAT     H219453   0.408   0.051   0.276  0.0268 -0.7867 -0.0414
 6351WAT      O19454   5.305   2.119   2.552  0.1121 -0.4784  0.0598
 6351WAT     H119455   5.220   2.078   2.569  0.5108 -1.3648 -0.0772
 6351WAT     H219456   5.286   2.181   2.481 -0.7679  0.5860  1.1688
 6352WAT      O19457   2.997   2.950   0.150 -0.4553 -0.8156  0.5076
 6352WAT     H119458   3.001   3.044   0.164  1.9876 -0.4261 -1.7953
 6352WAT     H219459   2.939   2.917   0.218 -2.5315  2.4769  0.5441
 6353WAT      O19460   6.563   4.240   5.851  0.0764 -0.3345 -0.1099
 6353WAT     H119461   6.558   4.169   5.914  1.2603  0.3384  0.7625
 6353WAT     H219462   6.553   4.319   5.903  0.3537  0.2051 -0.8661
 6354WAT      O19463   4.591   3.761   1.325 -0.3819 -0.0649 -0.4849
 6354WAT     H119464   4.646   3.806   1.390 -1.2505 -2.3056  1.9725
 6354WAT     H219465   4.502   3.785   1.347 -0.6575 -0.0447 -1.5498
 6355WAT      O19466   5.354   5.628   4.002  0.2588  0.4373 -0.1258
 6355WAT     H119467   5.269   5.653   3.967  1.2747  0.8151 -2.5583
 6355WAT     H219468   5.385   5.706   4.049  0.1999  1.0922 -1.1504
 6356WAT      O19469   5.157   1.364   5.207 -0.7073  0.1340  0.1632
 6356WAT     H119470   5.082   1.392   5.155  0.2644  0.7368 -0.9523
 6356WAT     H219471   5.192   1.445   5.243  0.6224  0.1214 -1.0182
 6357WAT      O19472   3.996   7.133   2.387 -0.8064 -0.1688 -0.0394
 6357WAT     H119473   3.941   7.060   2.416 -0.3982 -0.2802  0.4818
 6357WAT     H219474   4.078   7.092   2.360 -0.8805  0.0199 -0.5655
 6358WAT      O19475   7.435   6.581   4.192 -0.0355 -0.0802  0.5701
 6358WAT     H119476   7.475   6.658   4.154 -0.1705 -0.2533  0.0689
 6358WAT     H219477   7.380   6.615   4.263  0.6712  0.1881  1.0007
 6359WAT      O19478   5.446   5.537   3.170 -0.3244 -0.6940  0.2532
 6359WAT     H119479   5.364   5.488   3.159  0.1806 -1.2966 -1.1370
 6359WAT     H219480   5.420   5.617   3.215 -1.8329 -0.5149 -0.8481
 6360WAT      O19481   6.318   6.512   2.068 -0.4532  0.3994  0.3436
 6360WAT     H119482   6.354   6.565   2.139 -0.8399  1.2373 -0.0755
 6360WAT     H219483   6.381   6.522   1.996 -0.0158 -0.5180  0.5764
 6361WAT      O19484   6.980   1.940   1.833  0.0378 -0.3507 -0.2052
 6361WAT     H119485   7.075   1.947   1.822 -0.0637 -1.1176 -1.9582
 6361WAT     H219486   6.969   1.899   1.918  1.2077  1.1561  0.7140
 6362WAT      O19487   4.887   6.570   1.909  0.3452  0.7953 -0.1263
 6362WAT     H119488   4.845   6.655   1.927  1.1212  1.3652 -0.9157
 6362WAT     H219489   4.939   6.552   1.987 -1.2531  0.1224  0.8290
 6363WAT      O19490   3.232   2.707   3.416 -0.2827 -0.4316  0.4076
 6363WAT     H119491   3.155   2.761   3.399  0.1835 -0.0930 -0.7057
 6363WAT     H219492   3.234   2.698   3.512 -0.4820  1.3490  0.6126
 6364WAT      O19493   5.191   4.900   0.050 -0.2111 -0.3920  0.4537
 6364WAT     H119494   5.214   4.946   0.131 -0.4013 -0.9091  0.8039
 6364WAT     H219495   5.265   4.843   0.033 -0.6049 -1.0289  0.8215
 6365WAT      O19496   3.831   0.994   2.109 -0.4395 -0.4210  0.0479
 6365WAT     H119497   3.831   1.066   2.171 -0.3449 -1.4100  1.2366
 6365WAT     H219498   3.827   0.915   2.163 -0.0949 -1.3291 -1.1868
 6366WAT      O19499   2.232   3.569   0.330 -0.3910 -0.0095 -0.5001
 6366WAT     H119500   2.165   3.573   0.398  0.4853 -0.0212  0.3894
 6366WAT     H219501   2.210   3.492   0.278 -1.4398  0.3679 -0.6305
 6367WAT      O19502   6.068   1.565   5.052  0.0198  0.1516  0.1365
 6367WAT     H119503   6.023   1.555   5.135 -2.8554  0.4301 -1.2701
 6367WAT     H219504   6.146   1.510   5.060  0.3239  0.8815  3.2724
 6368WAT      O19505   6.046   6.977   2.898 -0.0554 -0.2778 -0.0138
 6368WAT     H119506   6.049   6.942   2.809 -0.6857  1.0931 -0.6167
 6368WAT     H219507   6.136   6.972   2.929  0.3532  0.0545 -1.0859
 6369WAT      O19508   2.099   2.534   4.788 -0.0400 -0.4817 -0.3547
 6369WAT     H119509   2.012   2.504   4.816  0.1922  0.2989  1.3136
 6369WAT     H219510   2.146   2.548   4.869  0.9130  1.2960 -1.1703
 6370WAT      O19511   4.251   0.014   3.381 -0.4330 -0.3525  0.0602
 6370WAT     H119512   4.192   0.077   3.338  2.4880  2.0444 -0.7886
 6370WAT     H219513   4.259   0.046   3.470  0.4075  0.0374 -0.1427
 6371WAT      O19514   6.471   6.036   1.570 -0.4091 -0.1681 -0.7794
 6371WAT     H119515   6.412   5.968   1.603 -0.0925  0.5926  1.4946
 6371WAT     H219516   6.421   6.117   1.574  0.6682  0.4696  1.0610
 6372WAT      O19517   6.872   2.863   5.244  0.2137 -0.0486  0.1691
 6372WAT     H119518   6.938   2.800   5.271  0.1110 -0.2247  0.0115
 6372WAT     H219519   6.803   2.855   5.310  0.1750 -0.1430  0.1178
 6373WAT      O19520   3.673   6.448   4.479  0.1518  0.2804  0.5608
 6373WAT     H119521   3.728   6.463   4.557  1.2767 -0.4662 -0.0732
 6373WAT     H219522   3.696   6.520   4.420  0.0313  0.2894  0.5263
 6374WAT      O19523   3.306   0.581   5.305 -0.5446 -0.2225  0.1756
 6374WAT     H119524   3.312   0.637   5.382  0.7589  0.8202 -0.6522
 6374WAT     H219525   3.374   0.613   5.245 -0.7153 -1.7647 -0.9264
 6375WAT      O19526   3.206   4.657   2.686  0.5945  0.1060 -0.1741
 6375WAT     H119527   3.294   4.681   2.714 -0.1776  1.0249  1.6982
 6375WAT     H219528   3.201   4.563   2.700  0.8572  0.2609  1.0902
 6376WAT      O19529   5.187   0.803   4.157  0.6135 -0.4913 -0.0443
 6376WAT     H119530   5.170   0.759   4.240  1.9584  0.2912  0.6851
 6376WAT     H219531   5.150   0.891   4.168 -0.0432 -0.6818 -0.6447
 6377WAT      O19532   6.730   1.527   3.965  0.5904  0.4282 -0.9356
 6377WAT     H119533   6.776   1.560   4.042 -0.5821 -0.1302  0.0249
 6377WAT     H219534   6.796   1.476   3.917  0.4243 -2.5970  1.7583
 6378WAT      O19535   5.450   6.148   0.119  0.0594 -0.2540 -0.2907
 6378WAT     H119536   5.500   6.067   0.130  0.6634  0.0710 -0.5946
 6378WAT     H219537   5.407   6.161   0.204  1.0764 -0.1477  0.2191
 6379WAT      O19538   2.678   1.541   3.448 -0.2033  0.0307 -0.2228
 6379WAT     H119539   2.752   1.589   3.484 -0.0846 -0.8073  0.6944
 6379WAT     H219540   2.634   1.604   3.391 -0.2792  1.3407  1.2201
 6380WAT      O19541   7.374   4.066   1.257  0.6419 -0.5990 -0.1960
 6380WAT     H119542   7.381   4.045   1.350 -1.6868  0.0631  0.1912
 6380WAT     H219543   7.302   4.129   1.252  1.1639 -0.1078 -2.3782
 6381WAT      O19544   6.305   0.195   0.533 -0.2375  0.4944 -0.4199
 6381WAT     H119545   6.222   0.243   0.540 -1.7229 -1.9292 -0.0743
 6381WAT     H219546   6.283   0.106   0.562  2.5899 -0.1637 -0.0272
 6382WAT      O19547   1.521   3.674   4.599  0.5590  0.2445 -0.4136
 6382WAT     H119548   1.430   3.661   4.627  0.7090 -0.7020 -0.3293
 6382WAT     H219549   1.570   3.683   4.681  1.0851 -3.1088 -0.2404
 6383WAT      O19550   4.069   6.725   5.187 -0.0892  0.2030  0.5841
 6383WAT     H119551   4.115   6.720   5.103 -1.0989 -2.6686  0.0769
 6383WAT     H219552   4.131   6.690   5.251  0.8289  2.7540  1.2292
 6384WAT      O19553   5.833   6.823   1.848  0.4727 -0.1513  0.2266
 6384WAT     H119554   5.814   6.781   1.932  0.0073 -0.0316  0.1842
 6384WAT     H219555   5.921   6.859   1.859 -0.2198  1.3127  1.2531
 6385WAT      O19556   5.904   3.359   0.078  0.1566  0.3250  0.1659
 6385WAT     H119557   5.844   3.410   0.131 -0.8718  1.1790 -1.7013
 6385WAT     H219558   5.967   3.322   0.140 -1.5920  0.3588  2.0554
 6386WAT      O19559   6.761   0.462   6.187 -0.3549 -0.1195  0.1186
 6386WAT     H119560   6.772   0.556   6.205  0.1482 -0.1076 -0.2338
 6386WAT     H219561   6.685   0.437   6.239 -0.9331  0.6423 -0.3400
 6387WAT      O19562   7.026   0.372   2.819  0.5200 -0.1911  0.5092
 6387WAT     H119563   7.074   0.308   2.768 -0.7800  0.1121 -1.2123
 6387WAT     H219564   6.956   0.322   2.861 -0.1836 -0.0321 -0.4237
 6388WAT      O19565   5.292   5.393   2.218 -0.5907 -1.0747 -0.1226
 6388WAT     H119566   5.345   5.472   2.232 -0.7011 -1.0217 -0.0008
 6388WAT     H219567   5.202   5.424   2.220 -0.7033 -1.4134  1.4042
 6389WAT      O19568   2.918   0.739   3.086 -0.1916 -0.5130 -0.2438
 6389WAT     H119569   2.993   0.738   3.026 -0.4140  0.4156 -0.5558
 6389WAT     H219570   2.957   0.747   3.173  0.0781  0.2990 -0.4277
 6390WAT      O19571   4.349   0.003   3.073  0.4408 -0.3184 -0.1571
 6390WAT     H119572   4.429  -0.006   3.124  1.6606  1.6708 -1.5723
 6390WAT     H219573   4.281   0.020   3.138  0.9098 -2.8477  1.1504
 6391WAT      O19574   2.547   1.255   5.099 -0.4395 -0.8698  0.3745
 6391WAT     H119575   2.536   1.162   5.119 -1.8312 -0.4490  1.7445
 6391WAT     H219576   2.508   1.300   5.173  1.6429  0.8444  0.5025
 6392WAT      O19577   6.223   2.318   2.129 -0.1162  0.5993 -0.2932
 6392WAT     H119578   6.261   2.310   2.217 -0.3876 -0.4251 -0.2617
 6392WAT     H219579   6.129   2.314   2.143 -0.1578  0.3409 -0.6444
 6393WAT      O19580   3.583   6.639   5.591 -0.5962 -0.0306 -0.0368
 6393WAT     H119581   3.629   6.581   5.652 -1.2389 -0.9202 -0.3892
 6393WAT     H219582   3.651   6.701   5.562  0.1697 -0.7650  0.1361
 6394WAT      O19583   6.543   1.711   0.906  0.1145  0.1168  0.3707
 6394WAT     H119584   6.595   1.639   0.871  0.2180  0.6780 -0.6966
 6394WAT     H219585   6.494   1.673   0.978  0.5844 -0.8841  0.1794
 6395WAT      O19586   5.411   2.060   3.448 -0.2082 -0.2741 -0.1318
 6395WAT     H119587   5.505   2.077   3.444 -0.2583  0.6460  1.6500
 6395WAT     H219588   5.371   2.146   3.442 -0.9043 -0.5874 -0.0949
 6396WAT      O19589   7.643   0.430   1.264 -0.2814  0.1429 -0.6454
 6396WAT     H119590   7.585   0.411   1.339 -0.1612  2.2684  0.0591
 6396WAT     H219591   7.585   0.427   1.188 -0.5812 -1.2103 -0.3844
 6397WAT      O19592   5.401   3.889   2.698  0.4682  0.4228 -0.6867
 6397WAT     H119593   5.400   3.848   2.611 -1.5735 -1.4745  0.1420
 6397WAT     H219594   5.313   3.924   2.709  0.7608  0.7983  0.5678
 6398WAT      O19595   7.326   5.180   6.084  0.2794  0.1222 -0.0049
 6398WAT     H119596   7.353   5.272   6.090  0.9975 -0.1184  0.6797
 6398WAT     H219597   7.277   5.164   6.165 -1.5817  0.4315 -1.0396
 6399WAT      O19598   0.586   1.273   5.224 -0.4723 -0.7144 -0.4332
 6399WAT     H119599   0.592   1.195   5.170  0.5966 -0.2982 -0.9679
 6399WAT     H219600   0.581   1.241   5.314  1.8184 -1.4328 -0.4981
 6400WAT      O19601   1.819   2.135   0.482 -0.0528 -0.1263  0.0741
 6400WAT     H119602   1.879   2.179   0.543  1.0785 -0.2731 -0.8947
 6400WAT     H219603   1.851   2.159   0.395 -0.2868 -1.6777 -0.4794
 6401WAT      O19604   0.900   1.352   1.420  0.7868 -0.3018 -0.4901
 6401WAT     H119605   0.988   1.354   1.460 -1.0042 -0.1036  4.0062
 6401WAT     H219606   0.876   1.260   1.422  0.3325 -0.1812 -0.1575
 6402WAT      O19607   5.357   3.625   5.118  0.4181  0.4971 -0.6692
 6402WAT     H119608   5.331   3.658   5.203  2.1764 -0.0871  0.1529
 6402WAT     H219609   5.386   3.702   5.070  3.3651  0.4438  0.8126
 6403WAT      O19610   4.212   0.102   1.620 -0.0151 -0.0963 -0.1291
 6403WAT     H119611   4.287   0.110   1.562 -0.2970 -0.3017 -0.5266
 6403WAT     H219612   4.144   0.157   1.580 -0.8910 -1.8332 -1.1260
 6404WAT      O19613   4.078   5.283   4.943  0.0136 -0.0483 -0.4223
 6404WAT     H119614   4.054   5.204   4.992  1.1032 -0.0659  0.1130
 6404WAT     H219615   4.157   5.315   4.987  1.8267 -0.7797 -2.8803
 6405WAT      O19616   5.150   1.869   0.397  0.0286 -0.7893 -0.2228
 6405WAT     H119617   5.188   1.785   0.372  0.1316 -1.0779  0.8699
 6405WAT     H219618   5.220   1.915   0.442 -1.0637 -1.6728  2.5951
 6406WAT      O19619   0.267   0.389   0.745  0.0900 -0.3038  0.3258
 6406WAT     H119620   0.284   0.407   0.837  2.0424 -0.9718  0.1401
 6406WAT     H219621   0.343   0.339   0.716 -1.7312 -2.4646 -0.9798
 6407WAT      O19622   4.413   4.611   3.217 -0.2793 -0.1808  0.1723
 6407WAT     H119623   4.443   4.651   3.298 -0.5521  1.2843 -0.4229
 6407WAT     H219624   4.354   4.540   3.245  0.4461 -0.3763  1.2488
 6408WAT      O19625   6.981   4.068   0.027 -0.1870  0.2540 -0.0313
 6408WAT     H119626   6.960   4.124   0.102  0.1041 -0.3062  0.4826
 6408WAT     H219627   7.067   4.031   0.049  0.2035  0.6002 -0.9515
 6409WAT      O19628   5.830   2.710   0.342 -0.0680 -0.0290 -0.9331
 6409WAT     H119629   5.831   2.702   0.437  1.1656 -0.5113 -0.9661
 6409WAT     H219630   5.902   2.769   0.322 -0.1120 -0.1895 -1.5876
 6410WAT      O19631   3.319   5.095   4.671  0.1441  0.3397  0.6099
 6410WAT     H119632   3.293   5.054   4.753  2.2324  0.8603  1.5892
 6410WAT     H219633   3.414   5.085   4.668  0.0808 -0.1882 -2.0547
 6411WAT      O19634   1.814   2.155   2.161 -0.1220  0.1973  0.8697
 6411WAT     H119635   1.864   2.186   2.236 -0.3318  0.6137  0.8416
 6411WAT     H219636   1.740   2.215   2.155 -1.0012 -0.8039  1.3293
 6412WAT      O19637   2.526   2.934   3.914 -0.4141 -0.4652  0.0161
 6412WAT     H119638   2.506   2.912   4.005  1.6128  1.6632  1.0948
 6412WAT     H219639   2.473   3.012   3.897  0.5071  0.1801  0.0182
 6413WAT      O19640   6.204   3.178   0.417  0.1309 -0.3053  0.5507
 6413WAT     H119641   6.289   3.158   0.376  0.2741 -0.0117  0.7039
 6413WAT     H219642   6.160   3.235   0.354 -0.1027 -0.7394  0.3094
 6414WAT      O19643   6.014   5.680   4.979  0.2495 -0.1247 -0.2832
 6414WAT     H119644   5.971   5.604   5.018 -0.8037  2.0372  3.1538
 6414WAT     H219645   5.942   5.735   4.950  0.8371  1.1200  0.5449
 6415WAT      O19646   1.414   5.930   3.431  0.2464  0.2607  0.2876
 6415WAT     H119647   1.360   5.852   3.426  0.0571  0.3311  1.1213
 6415WAT     H219648   1.362   5.993   3.480 -0.3372  1.5553 -1.8589
 6416WAT      O19649   5.688   5.615   2.010 -0.3687 -0.3763  0.1178
 6416WAT     H119650   5.768   5.626   2.062  0.0070  0.8876 -0.6812
 6416WAT     H219651   5.660   5.704   1.989 -0.3880 -0.8187 -1.9998
 6417WAT      O19652   5.046   1.138   2.882  0.0460  0.1049  0.8558
 6417WAT     H119653   4.989   1.150   2.958 -0.1427  1.9723  0.4706
 6417WAT     H219654   5.089   1.054   2.897 -1.4254 -0.4754  2.0695
 6418WAT      O19655   6.668   0.705   1.688  0.0329 -0.4456  0.6745
 6418WAT     H119656   6.763   0.711   1.699  0.1955 -0.9303 -0.3281
 6418WAT     H219657   6.645   0.621   1.728  0.2658 -1.0400 -0.3814
 6419WAT      O19658   7.055   2.654   4.902  0.2342 -0.4275  0.6548
 6419WAT     H119659   7.071   2.570   4.945  1.7054 -0.7822 -0.4694
 6419WAT     H219660   7.136   2.703   4.915 -0.5729  0.7966  1.2123
 6420WAT      O19661   2.584   3.873   1.698 -0.3134  0.0558  0.1377
 6420WAT     H119662   2.524   3.803   1.721 -0.7080  0.0069 -0.9614
 6420WAT     H219663   2.649   3.874   1.768 -0.0446 -1.7117 -0.0532
 6421WAT      O19664   2.092   4.916   1.208 -0.1185 -0.3998  0.4933
 6421WAT     H119665   2.099   4.822   1.191  2.0156  0.0505 -1.5513
 6421WAT     H219666   1.999   4.930   1.226 -0.6937 -2.7120 -0.3688
 6422WAT      O19667   5.941   1.195   1.846  0.1179  0.0835  0.4680
 6422WAT     H119668   5.850   1.216   1.827  0.5467  1.5723 -0.0636
 6422WAT     H219669   5.973   1.270   1.896  1.4698  0.3213 -0.6923
 6423WAT      O19670   6.197   1.721   4.484  0.8268  0.0322 -0.0818
 6423WAT     H119671   6.231   1.715   4.573  0.2796 -1.4335  0.0644
 6423WAT     H219672   6.131   1.790   4.488  1.0739  0.2390  0.5630
 6424WAT      O19673   2.363   0.084   0.958  0.6436 -0.6626 -0.2159
 6424WAT     H119674   2.307   0.049   0.889 -0.3320  1.0039 -0.3005
 6424WAT     H219675   2.452   0.079   0.921  0.2835 -0.9781 -1.0733
 6425WAT      O19676   3.434   6.588   3.668 -0.2480 -0.3251  0.2769
 6425WAT     H119677   3.481   6.658   3.623  0.7898 -0.4211  1.1759
 6425WAT     H219678   3.345   6.623   3.678 -0.4270 -0.1570 -1.4757
 6426WAT      O19679   0.150   6.447   4.466 -0.2200  0.6328  0.1733
 6426WAT     H119680   0.104   6.531   4.474  0.8826  1.3024 -0.3416
 6426WAT     H219681   0.191   6.434   4.552 -1.4678 -0.0466  0.6890
 6427WAT      O19682   2.005   2.878   3.624  0.0298  0.8153  0.0005
 6427WAT     H119683   2.012   2.827   3.706  0.6234  0.0118 -0.5358
 6427WAT     H219684   2.068   2.949   3.634  0.2038  0.6370  0.1854
 6428WAT      O19685   1.984   1.027   0.355 -0.3843 -0.6585 -0.1930
 6428WAT     H119686   2.041   0.980   0.294 -0.8442 -1.0728 -0.3158
 6428WAT     H219687   1.932   0.958   0.397  0.0685 -0.3934  0.8250
 6429WAT      O19688   4.849   1.950   4.340 -0.7383  0.3389 -0.1472
 6429WAT     H119689   4.781   1.977   4.401  0.0356  1.4520  0.2493
 6429WAT     H219690   4.928   1.994   4.371  0.1295 -0.7692 -0.7140
 6430WAT      O19691   2.206   2.463   4.075 -0.0556 -0.8622 -0.2775
 6430WAT     H119692   2.265   2.515   4.020  0.4936  0.9213  1.8174
 6430WAT     H219693   2.135   2.437   4.017  1.6251 -1.1374 -2.3556
 6431WAT      O19694   4.341   7.051   4.267 -0.2832 -0.4194  0.1304
 6431WAT     H119695   4.406   7.002   4.318  0.0702  1.0930  1.2230
 6431WAT     H219696   4.388   7.128   4.236 -0.4116 -1.4245 -2.8672
 6432WAT      O19697   1.506   5.275   1.522  0.1173  0.0223 -0.5474
 6432WAT     H119698   1.461   5.354   1.550 -1.6328 -0.2821 -2.2984
 6432WAT     H219699   1.523   5.288   1.429  1.3451 -0.9789 -0.4978
 6433WAT      O19700   5.295   6.604   5.117  0.0502 -0.0157  0.0379
 6433WAT     H119701   5.216   6.625   5.166 -0.6163 -0.4666 -0.8083
 6433WAT     H219702   5.330   6.526   5.159 -2.6513 -2.7976 -2.4201
 6434WAT      O19703   4.099   4.556   3.000 -0.1668  0.0855  0.3355
 6434WAT     H119704   4.182   4.594   2.972  0.0074 -0.2269  0.4189
 6434WAT     H219705   4.104   4.556   3.096  0.5665 -1.6912  0.3433
 6435WAT      O19706   5.995   4.554   0.248 -0.8163  0.0696  0.9138
 6435WAT     H119707   5.962   4.623   0.305  1.2838  0.7430  1.3791
 6435WAT     H219708   5.943   4.477   0.272 -1.5867  0.9000  2.0450
 6436WAT      O19709   3.171   0.649   5.018 -0.1092 -0.1526 -0.5498
 6436WAT     H119710   3.228   0.725   5.008 -1.2004  0.6914 -0.4998
 6436WAT     H219711   3.135   0.657   5.106 -1.3371  0.0738 -1.0492
 6437WAT      O19712   0.469   4.163   5.644  0.7672  0.4444 -0.2974
 6437WAT     H119713   0.515   4.232   5.692  1.4085 -0.5845  0.6016
 6437WAT     H219714   0.390   4.206   5.611  0.1331  1.1358  1.9392
 6438WAT      O19715   0.010   0.145   2.598 -0.2048  0.8036 -0.3389
 6438WAT     H119716  -0.050   0.217   2.576 -0.5360  0.1284 -1.7821
 6438WAT     H219717  -0.017   0.073   2.541  1.4257  0.2004 -0.4100
 6439WAT      O19718   2.455   4.867   3.456 -0.1648 -0.3270  0.6562
 6439WAT     H119719   2.537   4.911   3.476  2.6235 -5.0196  1.1457
 6439WAT     H219720   2.418   4.844   3.541 -1.1126  0.2379  0.4136
 6440WAT      O19721   1.308   2.317   5.882  0.0014 -0.5980  0.4974
 6440WAT     H119722   1.218   2.290   5.867 -1.2595  2.8649  0.9483
 6440WAT     H219723   1.306   2.367   5.963  2.3531 -0.4146  0.5389
 6441WAT      O19724   1.925   4.319   2.453 -0.2702  0.2583  0.1921
 6441WAT     H119725   1.943   4.343   2.543  0.0042 -0.1250  0.2442
 6441WAT     H219726   2.011   4.315   2.411 -0.3600  0.0142  0.0271
 6442WAT      O19727   0.728   4.257   0.386 -0.0071 -0.1585  0.2586
 6442WAT     H119728   0.815   4.298   0.389 -0.1353  0.0846  0.8686
 6442WAT     H219729   0.668   4.327   0.409 -0.1387 -0.9069  2.4391
 6443WAT      O19730   3.593   1.111   4.087  0.1238  0.0889 -0.6835
 6443WAT     H119731   3.557   1.175   4.149 -2.1494 -0.2059 -1.5865
 6443WAT     H219732   3.517   1.061   4.057  1.7660 -2.9760 -0.1594
 6444WAT      O19733   2.461   0.056   0.433  0.4860  0.5100 -0.2461
 6444WAT     H119734   2.472   0.005   0.513 -1.0406  0.1114 -0.2674
 6444WAT     H219735   2.438   0.144   0.463  1.1057  0.6795 -0.2458
 6445WAT      O19736   2.495   1.617   1.634 -0.0125  0.0607 -0.0488
 6445WAT     H119737   2.456   1.593   1.718 -1.0064  0.3520 -0.4160
 6445WAT     H219738   2.429   1.671   1.591  0.8480  0.6774 -0.6423
 6446WAT      O19739   1.147   0.172   0.973 -0.5854 -0.3927  0.0839
 6446WAT     H119740   1.127   0.215   1.056  0.2409  0.5004 -0.1588
 6446WAT     H219741   1.139   0.078   0.992  2.5721 -0.4227  2.0707
 6447WAT      O19742   1.871   2.742   5.768 -0.4380 -0.3760 -0.2445
 6447WAT     H119743   1.791   2.758   5.718 -1.9333 -1.0033  1.8143
 6447WAT     H219744   1.861   2.653   5.802  1.1530 -0.4785  0.0310
 6448WAT      O19745   7.442   1.577   2.520 -0.1014 -0.2701  0.5753
 6448WAT     H119746   7.499   1.627   2.578 -0.4665 -0.9784  1.5796
 6448WAT     H219747   7.353   1.598   2.551 -0.4753  1.3424 -1.3820
 6449WAT      O19748   4.760   7.045   4.073  0.3202  0.4709  0.0973
 6449WAT     H119749   4.833   7.101   4.100  1.0272 -0.3365 -0.0780
 6449WAT     H219750   4.726   7.009   4.155 -1.3515  2.5375  0.4067
 6450WAT      O19751   0.908   2.776   3.272 -0.0052 -0.1815 -0.1959
 6450WAT     H119752   0.960   2.768   3.352  0.6615  0.2729 -0.5705
 6450WAT     H219753   0.958   2.728   3.206 -0.9162 -1.1773 -0.1847
 6451WAT      O19754   5.537   6.569   4.973  0.2995  0.0934  0.7003
 6451WAT     H119755   5.499   6.630   5.036  1.1321 -0.2286  1.5394
 6451WAT     H219756   5.488   6.488   4.985 -2.5829  1.1700 -2.1827
 6452WAT      O19757   6.255   2.347   1.770  0.3408  0.2377  0.0251
 6452WAT     H119758   6.177   2.313   1.727  0.7997  0.5315 -1.0846
 6452WAT     H219759   6.225   2.423   1.820 -0.3654 -0.6732  1.0123
 6453WAT      O19760   4.145   2.826   0.451  0.5061  0.2500  0.7600
 6453WAT     H119761   4.189   2.891   0.506  1.7131 -1.2260  1.5944
 6453WAT     H219762   4.188   2.835   0.366 -0.0401  1.2172  0.5673
 6454WAT      O19763   7.205   4.721   0.492 -0.4388  0.1502  0.4833
 6454WAT     H119764   7.208   4.793   0.430  1.3931  1.4861  2.0120
 6454WAT     H219765   7.112   4.713   0.515 -0.8202  1.2298 -0.5803
 6455WAT      O19766   1.482   4.227   2.004  0.1324 -0.3934  0.0529
 6455WAT     H119767   1.570   4.203   1.976  0.3773  0.1445  0.3554
 6455WAT     H219768   1.424   4.177   1.946  0.5875  1.8122 -2.4751
 6456WAT      O19769   0.506   1.048   3.680  0.3209 -0.1305  0.0044
 6456WAT     H119770   0.593   1.029   3.644  0.1024  0.7900 -1.0377
 6456WAT     H219771   0.522   1.060   3.774  1.1031 -1.2419  0.0366
 6457WAT      O19772   6.586   7.097   1.176  0.2125 -0.2785  0.2874
 6457WAT     H119773   6.608   7.014   1.218  0.7043  0.2410  1.0838
 6457WAT     H219774   6.495   7.088   1.150  0.4107 -1.2556 -0.1007
 6458WAT      O19775   4.997   0.654   3.126 -0.4536  0.5643 -0.0984
 6458WAT     H119776   5.058   0.710   3.078 -0.4272 -0.8659 -1.8607
 6458WAT     H219777   4.916   0.704   3.129  0.8142  2.7800  2.8342
 6459WAT      O19778   4.579   3.069   5.530 -0.2067  0.2657 -0.0431
 6459WAT     H119779   4.566   3.079   5.624  1.1050 -1.0663  0.3034
 6459WAT     H219780   4.601   3.157   5.499  0.6713  0.4754  1.1187
 6460WAT      O19781   6.479   5.935   2.140  0.0019  0.2197 -0.1392
 6460WAT     H119782   6.571   5.936   2.168 -0.3579 -0.4937  1.1189
 6460WAT     H219783   6.462   5.844   2.115 -0.3888  0.3376 -0.3182
 6461WAT      O19784   1.887   4.347   1.275 -0.2729  0.0260  0.2333
 6461WAT     H119785   1.901   4.269   1.330  3.5558  0.7176  0.5490
 6461WAT     H219786   1.858   4.414   1.336  2.9460  0.5033  1.4638
 6462WAT      O19787   4.593   3.151   1.664  0.4195 -0.0454  0.4410
 6462WAT     H119788   4.530   3.214   1.699  1.1339  0.0617  1.5727
 6462WAT     H219789   4.541   3.095   1.606 -1.1154 -1.0436  2.6605
 6463WAT      O19790   6.122   5.021   2.100  0.4923 -0.3122 -0.2576
 6463WAT     H119791   6.124   4.942   2.154 -3.2763 -0.0407  0.5700
 6463WAT     H219792   6.122   4.988   2.010  1.4965 -1.0513 -0.0127
 6464WAT      O19793   1.554   2.157   4.464  0.1446  0.1026  0.3111
 6464WAT     H119794   1.469   2.192   4.492  0.9734  1.7146  0.9108
 6464WAT     H219795   1.605   2.152   4.544  0.9857  0.2025 -0.2143
 6465WAT      O19796   7.168   1.524   4.711 -0.2269 -0.4465  0.3466
 6465WAT     H119797   7.144   1.524   4.804 -0.8328  0.0771  0.1992
 6465WAT     H219798   7.198   1.435   4.693 -2.9624 -1.4746  0.3230
 6466WAT      O19799   3.154   4.959   4.528 -0.7219 -0.3963 -0.1586
 6466WAT     H119800   3.094   4.918   4.591 -1.9885 -0.5869 -1.4418
 6466WAT     H219801   3.224   4.994   4.582 -1.6922 -0.6773  1.3566
 6467WAT      O19802   5.427   2.053   1.939  0.4015 -0.0306  0.1924
 6467WAT     H119803   5.483   2.112   1.990 -0.3633  0.4418  0.5058
 6467WAT     H219804   5.392   1.992   2.004  0.2904 -0.1197  0.0476
 6468WAT      O19805   2.569   7.171   6.044 -0.0281  0.2056 -0.4509
 6468WAT     H119806   2.593   7.132   5.961  1.6625 -0.5372  0.3348
 6468WAT     H219807   2.643   7.229   6.065 -0.6184  0.6932  0.3291
 6469WAT      O19808   6.570   0.265   3.224  0.2367 -0.2086  0.0305
 6469WAT     H119809   6.494   0.222   3.184  0.6889 -0.9599 -0.0308
 6469WAT     H219810   6.593   0.335   3.162  0.1266 -0.5287 -0.3787
 6470WAT      O19811   2.237   4.800   5.448  0.7540 -0.2379  0.5256
 6470WAT     H119812   2.277   4.714   5.460 -1.0662 -1.0829  0.7675
 6470WAT     H219813   2.312   4.860   5.444  2.0395 -1.7389  0.9389
 6471WAT      O19814   0.007   5.490   0.851  0.0451  0.0522 -0.3303
 6471WAT     H119815  -0.012   5.483   0.944 -0.7021  0.2837 -0.4647
 6471WAT     H219816   0.091   5.535   0.847  2.9518 -4.5520  0.4472
 6472WAT      O19817   5.566   4.186   4.227 -0.2564  0.0992  0.3679
 6472WAT     H119818   5.508   4.180   4.151 -1.0160 -0.0460  0.9456
 6472WAT     H219819   5.543   4.270   4.267  2.1198  1.5544 -1.1179
 6473WAT      O19820   7.502   0.543   1.058 -0.2556  0.1033 -0.4336
 6473WAT     H119821   7.425   0.487   1.068  0.0627 -0.2466  0.1071
 6473WAT     H219822   7.549   0.506   0.983  1.1860 -1.8606  1.3250
 6474WAT      O19823   4.454   5.440   2.702 -0.0109 -0.8573  0.5752
 6474WAT     H119824   4.404   5.425   2.783  0.5241 -0.9034  0.9017
 6474WAT     H219825   4.538   5.398   2.718  0.1657 -0.7014  0.0624
 6475WAT      O19826   7.348   4.841   6.159 -0.4580  0.3402 -0.2615
 6475WAT     H119827   7.368   4.784   6.234  0.5729  1.7649  0.5946
 6475WAT     H219828   7.287   4.906   6.195 -0.6942  0.4771 -0.9081
 6476WAT      O19829   3.137   4.226   0.553 -0.0927  0.4533 -0.1391
 6476WAT     H119830   3.208   4.198   0.496  0.1512 -1.1141  0.8661
 6476WAT     H219831   3.101   4.303   0.511  1.5761  0.7099 -1.1796
 6477WAT      O19832   4.630   4.491   5.573 -0.8698  0.1174 -0.2742
 6477WAT     H119833   4.556   4.457   5.522  0.7571 -3.4357 -0.5618
 6477WAT     H219834   4.591   4.519   5.656 -2.6780 -0.4297 -0.8885
 6478WAT      O19835   7.560   3.319   4.960 -0.4399 -0.2007 -0.1423
 6478WAT     H119836   7.520   3.402   4.936  1.4926  1.0337  0.6547
 6478WAT     H219837   7.512   3.290   5.037  1.0958  2.0995  1.8419
 6479WAT      O19838   5.059   4.510   0.544  0.6820  0.2671 -0.4075
 6479WAT     H119839   5.063   4.569   0.620 -0.1853 -0.1162 -0.0439
 6479WAT     H219840   5.101   4.559   0.473  2.3566  0.2737  0.5326
 6480WAT      O19841   5.365   4.374   2.155  0.0617 -0.1749 -0.1669
 6480WAT     H119842   5.423   4.339   2.223  0.2182 -0.4063 -0.4154
 6480WAT     H219843   5.279   4.376   2.195  0.1996 -0.0577  0.1276
 6481WAT      O19844   7.105   0.441   1.586  0.4845  0.0038 -0.9840
 6481WAT     H119845   7.159   0.365   1.607  1.5504  0.7957 -0.7760
 6481WAT     H219846   7.023   0.426   1.633  2.2773  1.0856  2.9796
 6482WAT      O19847   2.962   1.334   2.297 -1.1326  0.0839 -0.4513
 6482WAT     H119848   2.930   1.392   2.366 -1.9227  0.3138 -0.9913
 6482WAT     H219849   3.046   1.372   2.271  0.7841 -1.7388  2.4741
 6483WAT      O19850   2.042   6.655   4.950 -0.4067  0.5857  0.0697
 6483WAT     H119851   2.045   6.694   5.037 -0.8339  0.4619  0.1413
 6483WAT     H219852   2.010   6.566   4.964  0.1529  0.3412 -0.1419
 6484WAT      O19853   3.209   7.219   2.766 -0.3643 -0.6331  0.6539
 6484WAT     H119854   3.266   7.143   2.753  1.6568  0.8294  0.4621
 6484WAT     H219855   3.136   7.186   2.817 -0.2572 -2.9954 -0.5807
 6485WAT      O19856   1.851   2.388   4.217  0.3623  0.0454  0.2090
 6485WAT     H119857   1.775   2.333   4.201  0.1243  0.4137  0.0534
 6485WAT     H219858   1.839   2.420   4.307 -0.4149  1.2357 -0.2808
 6486WAT      O19859   0.569   3.764   0.001 -0.0111 -0.0606  0.5229
 6486WAT     H119860   0.563   3.858   0.015 -1.8375 -0.4347  2.9545
 6486WAT     H219861   0.578   3.727   0.089 -0.5258 -2.2234 -0.2594
 6487WAT      O19862   1.155   2.013   0.686  0.0944  0.5359 -0.3946
 6487WAT     H119863   1.249   2.005   0.702 -0.1921 -0.7362  0.9854
 6487WAT     H219864   1.115   1.973   0.764 -1.5724  0.5196 -1.2207
 6488WAT      O19865   4.024   0.335   6.226  0.2189  0.2664  0.4090
 6488WAT     H119866   4.083   0.300   6.293  2.6714 -0.2431 -1.8630
 6488WAT     H219867   4.074   0.331   6.145 -2.3483  1.5410 -1.3855
 6489WAT      O19868   1.836   6.235   5.186 -0.2304 -0.3734 -0.2654
 6489WAT     H119869   1.888   6.159   5.159  0.3953 -0.2231  0.4864
 6489WAT     H219870   1.901   6.304   5.200 -0.8157  0.3763 -1.1818
 6490WAT      O19871   6.811   6.837   0.046 -0.5185 -0.2424 -0.3670
 6490WAT     H119872   6.765   6.854  -0.036 -0.2432 -0.9891 -0.6892
 6490WAT     H219873   6.755   6.875   0.114  0.0410  1.8694 -1.0143
 6491WAT      O19874   6.885   0.037   2.186 -0.3203 -0.4952 -0.3292
 6491WAT     H119875   6.812  -0.014   2.222  0.7802 -2.9955 -1.3817
 6491WAT     H219876   6.928   0.075   2.263 -1.8428 -0.1748  0.4084
 6492WAT      O19877   5.422   0.757   3.304  0.4514 -0.2367  0.7452
 6492WAT     H119878   5.451   0.843   3.273 -3.2914  1.0616  0.2539
 6492WAT     H219879   5.441   0.758   3.398  0.3519  1.2414  0.7786
 6493WAT      O19880   1.605   1.222   3.008 -0.1690  0.2222 -0.0133
 6493WAT     H119881   1.598   1.317   2.999 -1.0318  0.5713  3.0962
 6493WAT     H219882   1.643   1.209   3.095 -3.6093 -2.2052  1.3427
 6494WAT      O19883   5.769   5.907   0.152  0.0486 -0.1817  0.0996
 6494WAT     H119884   5.778   5.950   0.236  0.9812  0.8233 -0.4907
 6494WAT     H219885   5.735   5.820   0.173 -4.0855  1.4670  1.2010
 6495WAT      O19886   4.136   4.967   1.211 -0.6476  0.6568 -0.0913
 6495WAT     H119887   4.215   4.916   1.230 -0.8398  0.0516 -0.8737
 6495WAT     H219888   4.157   5.014   1.131 -1.4180 -0.2711 -0.8654
 6496WAT      O19889   5.106   5.743   3.910  0.1350  0.1921  0.5983
 6496WAT     H119890   5.016   5.776   3.910 -0.4205 -1.0254 -1.8697
 6496WAT     H219891   5.117   5.704   3.823  2.8805 -0.2178  1.0313
 6497WAT      O19892   5.227   2.160   4.685 -0.3511 -0.2038 -0.4343
 6497WAT     H119893   5.302   2.213   4.657 -1.3925  1.4925 -0.1280
 6497WAT     H219894   5.257   2.116   4.765  0.4615  0.0870 -0.5721
 6498WAT      O19895   1.984   0.845   0.949  0.0626  0.7106  0.0877
 6498WAT     H119896   2.006   0.785   0.878  0.9535 -0.5517  1.3781
 6498WAT     H219897   2.030   0.926   0.927 -1.8934  1.3357 -2.1488
 6499WAT      O19898   2.376   0.930   2.702 -0.1460  0.7285  0.3124
 6499WAT     H119899   2.467   0.961   2.709  0.5164 -0.4071 -2.1053
 6499WAT     H219900   2.378   0.869   2.629 -2.6509 -0.2857  1.0098
 6500WAT      O19901   0.132   6.125   6.022 -0.5059  0.2954 -0.0183
 6500WAT     H119902   0.173   6.211   6.031 -0.3354  0.1656  0.4855
 6500WAT     H219903   0.052   6.142   5.972  0.3359  0.4907 -1.3368
 6501WAT      O19904   0.437   5.712   2.089 -0.1212  0.0732  0.1642
 6501WAT     H119905   0.526   5.747   2.083  0.9316 -2.3822  0.4641
 6501WAT     H219906   0.424   5.694   2.182 -0.5674 -0.4277  0.0099
 6502WAT      O19907   6.471   0.723   6.152 -0.3057  0.3682 -0.4435
 6502WAT     H119908   6.514   0.773   6.220 -0.8160 -0.1451  0.2719
 6502WAT     H219909   6.506   0.758   6.070 -0.0212  1.2926  0.0652
 6503WAT      O19910   4.337   5.960   2.913  0.1357 -0.8249 -0.0351
 6503WAT     H119911   4.409   5.990   2.967  1.3145  1.4260 -2.6475
 6503WAT     H219912   4.360   5.870   2.890  1.0633 -0.8157  0.7997
 6504WAT      O19913   1.060   3.217   3.242  0.2000 -0.3441  0.5602
 6504WAT     H119914   1.081   3.186   3.330 -0.2483  3.5792  2.2530
 6504WAT     H219915   1.133   3.273   3.218 -1.1150  1.1762 -0.1253
 6505WAT      O19916   1.194   5.470   5.100 -0.1255  0.3701 -0.9648
 6505WAT     H119917   1.267   5.527   5.077  2.0492 -1.5632  0.6419
 6505WAT     H219918   1.204   5.394   5.043 -2.1536  0.8906 -2.1076
 6506WAT      O19919   0.441   3.619   2.892  0.1827 -0.0914  0.0020
 6506WAT     H119920   0.504   3.668   2.945 -0.7387  0.9913  0.1221
 6506WAT     H219921   0.356   3.635   2.935 -0.3664 -0.4234 -0.9383
 6507WAT      O19922   7.033   0.888   4.703  0.5287 -0.4200  0.2973
 6507WAT     H119923   7.124   0.857   4.708  0.6453  0.1091  2.6484
 6507WAT     H219924   7.028   0.958   4.768 -1.7688 -0.9604  0.7879
 6508WAT      O19925   3.332   1.849   1.424 -0.0149  0.8759 -0.1945
 6508WAT     H119926   3.329   1.869   1.517  0.5976  0.4145 -0.0702
 6508WAT     H219927   3.426   1.850   1.403  0.0014 -1.0920 -0.3472
 6509WAT      O19928   5.464   1.665   2.636  0.2508 -0.7067 -0.3589
 6509WAT     H119929   5.393   1.665   2.700  2.0940 -2.9072  1.8601
 6509WAT     H219930   5.538   1.706   2.681  0.9268 -0.0482 -1.9925
 6510WAT      O19931   6.105   0.436   0.709 -0.2493 -0.1704  0.6596
 6510WAT     H119932   6.011   0.443   0.725 -0.6208  0.4226 -1.4393
 6510WAT     H219933   6.129   0.350   0.741 -1.9307 -1.1229 -0.4806
 6511WAT      O19934   6.836   5.911   1.859 -0.5579  0.1902  0.3430
 6511WAT     H119935   6.832   5.991   1.807 -2.1788  0.0085  0.1170
 6511WAT     H219936   6.751   5.870   1.845 -0.2729 -0.8768  1.5634
 6512WAT      O19937   1.289   0.830   3.040  0.1960 -0.1478  0.4303
 6512WAT     H119938   1.208   0.841   2.990 -0.3279  0.5269  1.3861
 6512WAT     H219939   1.294   0.909   3.094  1.8687  0.1413 -0.1135
 6513WAT      O19940   6.963   5.960   3.759  0.1765 -0.6604  0.4150
 6513WAT     H119941   7.013   5.914   3.827  0.0837 -1.6929 -0.1955
 6513WAT     H219942   6.893   5.898   3.735  0.3529 -0.4036 -0.7839
 6514WAT      O19943   6.933   6.815   3.271 -0.0503 -0.2310 -0.0402
 6514WAT     H119944   7.006   6.795   3.212 -0.7380 -3.4566 -0.0127
 6514WAT     H219945   6.962   6.780   3.356 -0.2983  1.5981  0.8376
 6515WAT      O19946   2.308   1.269   3.156  0.1383  0.5565  0.1759
 6515WAT     H119947   2.373   1.205   3.184  1.0420  1.5335  0.3745
 6515WAT     H219948   2.230   1.248   3.207 -0.0732 -1.2991 -0.8249
 6516WAT      O19949   5.815   6.767   3.324 -0.0747 -0.3929  0.0171
 6516WAT     H119950   5.850   6.799   3.407 -1.6984  0.5991  0.3564
 6516WAT     H219951   5.883   6.786   3.260  0.1004  1.3524  0.6762
 6517WAT      O19952   2.309   5.098   2.035  0.3838  0.0947  0.2058
 6517WAT     H119953   2.319   5.033   2.106  0.4392 -0.4987 -0.3353
 6517WAT     H219954   2.378   5.162   2.052  0.5026 -0.1284  0.5949
 6518WAT      O19955   4.050   1.764   5.875 -0.4099 -0.0601  0.0266
 6518WAT     H119956   3.975   1.824   5.872 -0.8795 -0.6085  0.5069
 6518WAT     H219957   4.101   1.794   5.950 -0.4515 -0.0316  0.0439
 6519WAT      O19958   6.702   5.812   4.896 -0.3244 -0.0492 -0.2761
 6519WAT     H119959   6.736   5.881   4.953  0.3137  1.3164 -2.2040
 6519WAT     H219960   6.648   5.758   4.953  0.9245  0.7624  1.7702
 6520WAT      O19961   5.968   4.611   0.609  0.2246 -0.2964 -0.1375
 6520WAT     H119962   5.954   4.520   0.636 -3.2991 -0.1922 -1.0832
 6520WAT     H219963   5.893   4.658   0.646  1.0655  1.9171 -1.0807
 6521WAT      O19964   2.228   2.260   2.288  0.0696  0.2308 -0.4070
 6521WAT     H119965   2.305   2.207   2.269 -0.3865 -1.0100  1.0238
 6521WAT     H219966   2.241   2.340   2.237  0.3727 -1.5352 -3.3186
 6522WAT      O19967   6.663   6.842   4.041 -0.0158  0.1273  0.6167
 6522WAT     H119968   6.637   6.777   3.976 -1.2232  0.8587  0.3313
 6522WAT     H219969   6.713   6.793   4.105  0.2045 -0.8324 -0.2660
 6523WAT      O19970   4.953   2.571   0.026  0.2404  0.2256  0.8121
 6523WAT     H119971   5.014   2.599  -0.042  0.1139  0.8082  0.9383
 6523WAT     H219972   4.881   2.634   0.022  0.2826  0.3251  1.5513
 6524WAT      O19973   0.782   3.346   1.995 -0.2461  0.5358 -0.0404
 6524WAT     H119974   0.803   3.263   2.037 -0.0378  0.6473  0.0780
 6524WAT     H219975   0.694   3.367   2.026 -0.4674  0.1537 -0.4011
 6525WAT      O19976   1.492   6.191   2.504  0.3728  0.5796  0.3764
 6525WAT     H119977   1.584   6.206   2.481  0.0274  0.2665 -1.3229
 6525WAT     H219978   1.479   6.241   2.585  1.6778  1.7363 -0.0937
 6526WAT      O19979   6.554   1.265   4.261 -0.4597  0.3266  0.4258
 6526WAT     H119980   6.647   1.246   4.275 -0.4333  1.7388  2.5897
 6526WAT     H219981   6.548   1.285   4.167  1.0876 -1.3240 -0.0805
 6527WAT      O19982   0.866   0.127   4.583  0.2383 -0.2613 -0.1614
 6527WAT     H119983   0.778   0.136   4.620 -0.1503  0.5803 -1.2192
 6527WAT     H219984   0.925   0.151   4.654 -0.3428 -1.4408  0.7549
 6528WAT      O19985   0.244   2.896   2.990 -0.4260  0.0640  0.2621
 6528WAT     H119986   0.285   2.927   3.071 -0.5053 -1.9902  1.1409
 6528WAT     H219987   0.216   2.807   3.010  0.1893 -0.7796 -2.2563
 6529WAT      O19988   5.839   0.567   0.997  0.2459  0.1542  0.3877
 6529WAT     H119989   5.798   0.536   0.916 -0.3658 -0.0156  0.7633
 6529WAT     H219990   5.767   0.600   1.050  0.1663 -2.5416  2.1684
 6530WAT      O19991   1.668   3.037   4.329  0.0216  0.3151 -0.0182
 6530WAT     H119992   1.760   3.054   4.313  0.7895 -1.7514  1.7451
 6530WAT     H219993   1.657   2.944   4.310 -1.7974  0.5793 -0.4656
 6531WAT      O19994   4.816   4.064   4.076 -0.1757  0.0359  1.0283
 6531WAT     H119995   4.819   4.057   4.172  1.5613 -2.4718  0.8962
 6531WAT     H219996   4.849   4.153   4.058  0.3409  0.2335  2.7288
 6532WAT      O19997   3.790   4.398   0.353  0.0473  0.1835 -0.1643
 6532WAT     H119998   3.739   4.421   0.275 -1.7138 -1.2855  0.4950
 6532WAT     H219999   3.743   4.442   0.425  2.1344  2.2436  0.0677
 6533WAT      O20000   1.446   0.533   5.770 -0.1728  0.0764 -0.4330
 6533WAT     H120001   1.528   0.491   5.798 -0.1743 -0.1674 -0.7825
 6533WAT     H220002   1.380   0.496   5.828  0.4796  3.4148  2.8610
 6534WAT      O20003   5.535   0.704   4.947  0.4336  0.0840 -0.0425
 6534WAT     H120004   5.586   0.749   5.015  1.9521 -0.1891 -0.9718
 6534WAT     H220005   5.471   0.653   4.996  1.3788  0.0294  1.1926
 6535WAT      O20006   3.425   0.582   4.572 -0.2757  0.2558  0.2121
 6535WAT     H120007   3.453   0.493   4.552 -0.2540  0.5783 -1.3349
 6535WAT     H220008   3.493   0.616   4.630  1.3229  0.2333 -1.5564
 6536WAT      O20009   4.248   1.722   3.675 -0.1072  0.2284 -0.1234
 6536WAT     H120010   4.203   1.697   3.755 -0.8395  1.5589 -0.0837
 6536WAT     H220011   4.257   1.817   3.682 -1.1765  0.5166 -2.1022
 6537WAT      O20012   1.391   3.423   5.281  0.5340 -0.2573 -0.1079
 6537WAT     H120013   1.380   3.337   5.240 -0.4296  0.3910 -1.2709
 6537WAT     H220014   1.334   3.421   5.357 -0.1544 -0.3551 -0.6210
 6538WAT      O20015   2.604   1.114   5.406  0.0357 -0.1078  0.0571
 6538WAT     H120016   2.638   1.141   5.492  1.1111 -0.3480 -0.2791
 6538WAT     H220017   2.568   1.027   5.421  0.8078 -0.4259  0.1431
 6539WAT      O20018   4.808   4.140   4.635  0.5923 -0.4551  0.7079
 6539WAT     H120019   4.869   4.105   4.570  1.3102 -0.2735  1.2793
 6539WAT     H220020   4.830   4.094   4.716  0.4961  0.1862  1.1021
 6540WAT      O20021   2.366   4.154   3.203  0.0869  0.2036  0.4597
 6540WAT     H120022   2.342   4.207   3.127  0.4084  0.8079  0.7738
 6540WAT     H220023   2.369   4.064   3.170 -0.4682  0.3774 -0.0772
 6541WAT      O20024   1.768   6.650   2.485 -0.2946 -0.0025 -0.2979
 6541WAT     H120025   1.846   6.629   2.536 -1.4952 -0.6659  1.3669
 6541WAT     H220026   1.780   6.741   2.459  0.3786  0.3623  1.1939
 6542WAT      O20027   1.566   6.466   3.016  0.1838 -0.2027 -0.0311
 6542WAT     H120028   1.627   6.396   2.991  0.8076  0.4137 -0.2899
 6542WAT     H220029   1.616   6.520   3.078 -0.4908 -0.3100  0.6134
 6543WAT      O20030   7.551   0.732   2.190  0.9663 -0.5442 -0.0857
 6543WAT     H120031   7.581   0.813   2.230 -0.0965 -1.0387  1.8605
 6543WAT     H220032   7.524   0.757   2.102 -0.7401  1.5645  0.9391
 6544WAT      O20033   6.401   6.944   5.510  0.2030 -0.1769  0.2344
 6544WAT     H120034   6.377   6.993   5.589  1.2807  0.4751  0.1795
 6544WAT     H220035   6.420   7.012   5.445  0.1055 -0.7025 -0.3510
 6545WAT      O20036   4.682   0.201   0.630 -0.2395 -0.2526  0.2705
 6545WAT     H120037   4.712   0.182   0.542  0.2523  0.4196  0.2836
 6545WAT     H220038   4.682   0.116   0.675  2.1012 -0.2520  0.3961
 6546WAT      O20039   0.313   5.420   6.095  0.3768  0.3694  0.3897
 6546WAT     H120040   0.370   5.390   6.025  1.5659 -1.4947  2.0503
 6546WAT     H220041   0.371   5.437   6.169 -1.0050 -0.0219  1.6415
 6547WAT      O20042   1.050   5.303   1.412 -0.2610  0.0085 -0.2364
 6547WAT     H120043   1.064   5.216   1.375  0.3692  0.5024 -1.1660
 6547WAT     H220044   1.012   5.354   1.341  0.9780  0.9670 -0.2428
 6548WAT      O20045   5.454   1.613   2.251 -0.0012 -0.1924 -0.2115
 6548WAT     H120046   5.368   1.648   2.232 -0.8995 -1.6075  0.9998
 6548WAT     H220047   5.445   1.518   2.240  1.5406 -0.3384 -0.5405
 6549WAT      O20048   2.582   4.350   3.705  0.2246 -0.4078  0.4768
 6549WAT     H120049   2.530   4.411   3.653 -0.5132 -0.4488  1.1457
 6549WAT     H220050   2.642   4.309   3.642 -1.2845 -1.1697 -0.5171
 6550WAT      O20051   6.532   2.605   4.839 -0.1123  0.5165 -0.1742
 6550WAT     H120052   6.559   2.691   4.870 -1.3502  1.2604 -1.0684
 6550WAT     H220053   6.584   2.543   4.890  0.4210  1.7775  0.8529
 6551WAT      O20054   1.916   3.365   0.310 -0.3658 -0.7601 -0.3962
 6551WAT     H120055   1.822   3.371   0.330 -0.7230  0.8603 -2.1909
 6551WAT     H220056   1.959   3.408   0.384 -1.0155 -1.5051  0.4384
 6552WAT      O20057   2.879   0.291   5.289  0.1046 -0.5079  0.2361
 6552WAT     H120058   2.855   0.376   5.251 -0.5194  0.1498  2.0017
 6552WAT     H220059   2.798   0.241   5.288  0.4233 -1.0322 -0.5968
 6553WAT      O20060   4.662   1.489   1.070 -0.7396  0.1191  0.1549
 6553WAT     H120061   4.575   1.526   1.055 -0.9158 -0.0184  0.8361
 6553WAT     H220062   4.714   1.563   1.101 -0.5563  0.2460 -0.4419
 6554WAT      O20063   5.698   4.522   1.380 -0.1188 -0.1668  0.3616
 6554WAT     H120064   5.765   4.590   1.379 -0.5161  0.2630 -1.2728
 6554WAT     H220065   5.737   4.450   1.428  0.2680  1.2422  2.2563
 6555WAT      O20066   6.505   2.239   3.086 -0.0423  0.5902 -0.0130
 6555WAT     H120067   6.568   2.303   3.119 -0.4112  0.5632  0.7687
 6555WAT     H220068   6.428   2.249   3.143  0.0196 -0.7811  0.3561
 6556WAT      O20069   6.948   0.781   1.579 -0.3036 -0.3857 -0.7322
 6556WAT     H120070   6.963   0.871   1.607 -0.1902 -0.3003 -1.0671
 6556WAT     H220071   7.031   0.736   1.599  0.1000 -0.1173 -1.7608
 6557WAT      O20072   3.453   4.577   4.922  0.6759  0.5212 -0.2238
 6557WAT     H120073   3.456   4.549   5.013  0.2368 -0.6020 -0.5402
 6557WAT     H220074   3.391   4.517   4.880  0.5968  1.2409 -1.1908
 6558WAT      O20075   4.460   1.031   3.474 -0.6257  0.1342  0.2365
 6558WAT     H120076   4.374   1.072   3.482 -1.2711 -0.6925 -1.6680
 6558WAT     H220077   4.511   1.092   3.421 -0.8265 -0.4188 -0.6170
 6559WAT      O20078   7.163   2.077   3.269 -0.0761 -0.5923  0.1334
 6559WAT     H120079   7.070   2.076   3.292 -0.3725  1.5485 -0.7117
 6559WAT     H220080   7.207   2.101   3.350 -0.6348  1.7104 -0.1559
 6560WAT      O20081   1.141   6.188   0.602  0.6421 -0.5243  0.1479
 6560WAT     H120082   1.053   6.206   0.567  1.1637 -1.4922 -1.8439
 6560WAT     H220083   1.126   6.121   0.669 -0.2147 -0.1411  0.3586
 6561WAT      O20084   4.706   4.660   0.565  0.0486 -0.6024  0.1952
 6561WAT     H120085   4.663   4.618   0.490 -0.1014 -0.7692  0.3731
 6561WAT     H220086   4.697   4.597   0.636 -0.3485 -0.1858  0.5201
 6562WAT      O20087   4.848   4.990   1.291  0.7900  0.5688 -0.3220
 6562WAT     H120088   4.872   5.054   1.223 -0.0341  0.5631 -0.6380
 6562WAT     H220089   4.926   4.936   1.303  1.5948  1.7912  0.1358
 6563WAT      O20090   0.619   4.204   4.578 -0.4192  0.1159  0.3813
 6563WAT     H120091   0.600   4.166   4.663 -0.9301 -0.4668  0.0097
 6563WAT     H220092   0.698   4.159   4.549 -0.8781 -0.4908  0.0562
 6564WAT      O20093   6.418   3.421   4.480 -0.0381 -0.3008  0.1241
 6564WAT     H120094   6.474   3.386   4.549 -1.0962 -0.6953  0.8143
 6564WAT     H220095   6.478   3.454   4.413  1.0145  0.2044  1.2868
 6565WAT      O20096   6.425   5.523   4.764  0.3408 -0.5207 -0.4177
 6565WAT     H120097   6.414   5.539   4.670  1.3353  1.6466 -0.2404
 6565WAT     H220098   6.374   5.593   4.805  0.3055 -1.1617  0.6559
 6566WAT      O20099   2.493   5.308   1.151  0.5914 -0.3036 -0.1386
 6566WAT     H120100   2.434   5.250   1.103  0.4998  1.3972 -2.2238
 6566WAT     H220101   2.455   5.313   1.238 -2.1616  0.3690 -1.2622
 6567WAT      O20102   0.568   0.053   2.309 -0.0703 -0.3612  0.1642
 6567WAT     H120103   0.571   0.047   2.405 -0.9782 -0.4373  0.1959
 6567WAT     H220104   0.543   0.144   2.292 -1.5283 -0.7647  0.0477
 6568WAT      O20105   2.257   1.982   5.746 -0.6073  0.4330  0.0802
 6568WAT     H120106   2.188   1.979   5.813  0.2010  1.2155  0.9926
 6568WAT     H220107   2.228   1.920   5.679 -1.0971 -0.9548  1.5001
 6569WAT      O20108   0.511   3.257   4.687  0.0299 -0.2276  0.0304
 6569WAT     H120109   0.456   3.311   4.744 -2.0896 -2.2392  0.0541
 6569WAT     H220110   0.557   3.198   4.747 -1.4699 -1.6978 -0.1737
 6570WAT      O20111   5.932   5.161   4.780  0.1564 -0.1742 -0.5337
 6570WAT     H120112   5.855   5.191   4.827  1.2717 -0.2694  1.4552
 6570WAT     H220113   5.909   5.171   4.687 -2.0153  0.2892  0.0032
 6571WAT      O20114   0.318   6.925   0.827 -0.3383  0.6328 -0.2151
 6571WAT     H120115   0.303   6.919   0.921  0.0726 -1.6426 -0.2363
 6571WAT     H220116   0.350   6.838   0.802 -0.1093  1.2785 -2.4048
 6572WAT      O20117   2.831   7.060   2.492 -0.3175  0.1215 -0.2651
 6572WAT     H120118   2.901   7.004   2.460 -1.3815 -0.6780 -1.2927
 6572WAT     H220119   2.846   7.144   2.448 -0.2636 -0.1848 -0.8409
 6573WAT      O20120   4.254   0.035   0.705  0.2840  0.3604  0.1068
 6573WAT     H120121   4.293   0.117   0.735  0.0536  0.3552  0.4291
 6573WAT     H220122   4.241  -0.016   0.785 -0.6861  0.4998  0.0530
 6574WAT      O20123   6.153   3.051   0.790 -0.1412 -0.1578 -0.0037
 6574WAT     H120124   6.176   3.080   0.878  2.7246  0.2000 -0.7869
 6574WAT     H220125   6.113   3.128   0.749 -0.1117  0.1265  0.4947
 6575WAT      O20126   6.132   5.653   0.822 -0.3555 -0.0420 -0.0379
 6575WAT     H120127   6.110   5.566   0.789 -1.4686 -0.7125  2.2504
 6575WAT     H220128   6.122   5.711   0.747  0.2005 -1.8262 -1.5647
 6576WAT      O20129   7.178   1.519   0.718  0.7173 -0.0414 -0.1255
 6576WAT     H120130   7.228   1.439   0.730  1.2430  0.2125 -0.5515
 6576WAT     H220131   7.220   1.563   0.644 -0.2504  0.0934 -0.6143
 6577WAT      O20132   1.196   1.698   1.652  0.2384 -0.2986 -0.2309
 6577WAT     H120133   1.185   1.639   1.578 -1.1928  0.0714 -0.3342
 6577WAT     H220134   1.288   1.686   1.679  0.0623 -2.3815 -0.3984
 6578WAT      O20135   5.235   1.004   3.396 -0.2353  0.4038  0.1724
 6578WAT     H120136   5.278   1.005   3.310  1.2081  1.5144  0.8784
 6578WAT     H220137   5.220   1.096   3.417  1.5905  0.3158  2.1254
 6579WAT      O20138   0.790   3.113   2.683 -0.2685 -0.9350 -0.1223
 6579WAT     H120139   0.821   3.037   2.732  0.6263 -0.6249 -0.1922
 6579WAT     H220140   0.841   3.186   2.717 -0.4030 -0.5379 -0.7569
 6580WAT      O20141   7.263   6.148   5.705  0.1175  0.0016 -0.6453
 6580WAT     H120142   7.270   6.053   5.714 -1.8626 -0.0299  1.4645
 6580WAT     H220143   7.195   6.161   5.638 -0.6047 -0.1129  0.0546
 6581WAT      O20144   0.782   0.625   3.847 -0.5974  0.6520 -0.0726
 6581WAT     H120145   0.700   0.666   3.874 -0.7559 -0.4400  1.2036
 6581WAT     H220146   0.826   0.602   3.929 -0.4691 -1.5742 -0.7094
 6582WAT      O20147   6.300   3.747   1.407  0.3254  0.3231 -0.3661
 6582WAT     H120148   6.246   3.792   1.472  1.6685  2.1212 -0.4079
 6582WAT     H220149   6.291   3.801   1.328  1.2768  0.0128 -0.6919
 6583WAT      O20150   3.027   4.956   5.368 -0.1435 -0.1606  0.0817
 6583WAT     H120151   2.964   4.962   5.296  0.0249 -1.1064 -0.1548
 6583WAT     H220152   3.111   4.981   5.330 -0.2251  0.3326  0.2092
 6584WAT      O20153   7.422   4.398   0.592  0.2913 -0.0179 -0.0501
 6584WAT     H120154   7.431   4.449   0.512  1.5459 -1.3711 -0.8254
 6584WAT     H220155   7.473   4.447   0.657  1.6391 -0.3277 -0.8283
 6585WAT      O20156   4.796   0.850   1.563 -0.1156  0.3551 -0.1497
 6585WAT     H120157   4.848   0.924   1.596  0.2002 -0.3036  0.8716
 6585WAT     H220158   4.741   0.825   1.637  1.9452 -2.3952  0.6333
 6586WAT      O20159   7.575   0.088   5.768  0.6667  0.5778  0.0442
 6586WAT     H120160   7.642   0.020   5.760  1.2935  1.3800 -1.8523
 6586WAT     H220161   7.616   0.156   5.821  1.6130  1.3371 -1.6146
 6587WAT      O20162   0.711   4.040   2.957  0.3866 -0.0261  0.4453
 6587WAT     H120163   0.804   4.041   2.978  0.3064  0.0471  0.8110
 6587WAT     H220164   0.707   4.014   2.865  0.8070  0.7014  0.2177
 6588WAT      O20165   6.790   7.041   5.164 -0.5667  0.5780  0.4542
 6588WAT     H120166   6.837   7.013   5.085  0.6587 -0.1134  1.3842
 6588WAT     H220167   6.708   7.078   5.132  1.0401  2.8436 -1.3475
 6589WAT      O20168   1.567   7.176   5.268  0.0207 -0.2437  0.1118
 6589WAT     H120169   1.527   7.253   5.308 -2.8199 -2.1213  1.2873
 6589WAT     H220170   1.584   7.117   5.342 -0.0486 -1.6270 -0.9202
 6590WAT      O20171   1.143   4.316   4.489  0.9135  0.0816 -0.6458
 6590WAT     H120172   1.133   4.347   4.579  1.4094 -0.2988 -0.4587
 6590WAT     H220173   1.054   4.298   4.460  0.7134  0.6294 -0.3823
 6591WAT      O20174   1.462   0.313   2.524 -0.1058 -0.0558  0.8178
 6591WAT     H120175   1.368   0.334   2.524 -1.0522 -2.6475 -4.3730
 6591WAT     H220176   1.504   0.395   2.497 -1.4023  0.2734 -0.3685
 6592WAT      O20177   0.867   4.970   3.004  0.1101  0.8020 -0.2085
 6592WAT     H120178   0.873   5.065   3.011  1.1573  0.7985 -0.7987
 6592WAT     H220179   0.838   4.941   3.090  0.3090  1.6166  0.1441
 6593WAT      O20180   5.307   5.847   5.646  0.5269  0.1977 -0.1913
 6593WAT     H120181   5.212   5.854   5.646  0.4944  0.4176 -2.4020
 6593WAT     H220182   5.338   5.936   5.660  0.4613 -0.0236  1.5893
 6594WAT      O20183   6.080   1.644   3.957 -0.2572  0.4303  0.0815
 6594WAT     H120184   6.002   1.655   3.903 -0.8968 -0.3154  0.8248
 6594WAT     H220185   6.092   1.549   3.963  0.9512  0.5370 -0.3573
 6595WAT      O20186   2.117   3.967  -0.004  0.2423  0.2728 -0.4272
 6595WAT     H120187   2.151   3.885   0.032 -0.4641 -0.2470 -0.9139
 6595WAT     H220188   2.044   3.990   0.053 -0.4114 -0.1602 -1.0770
 6596WAT      O20189   6.314   4.573   3.265  0.5271 -0.1106  0.5910
 6596WAT     H120190   6.298   4.523   3.344  0.3598  0.4515  0.9189
 6596WAT     H220191   6.248   4.643   3.266  0.2557 -0.3396 -0.2516
 6597WAT      O20192   0.802   0.979   0.237  0.4337 -0.0701 -0.5867
 6597WAT     H120193   0.726   1.033   0.217  0.8379  0.3880 -0.8932
 6597WAT     H220194   0.849   0.972   0.154  0.0526 -1.4209 -0.7104
 6598WAT      O20195   5.006   6.972   5.455 -0.0339  0.3282  0.2535
 6598WAT     H120196   4.983   7.049   5.507 -0.4333 -0.5230  1.3636
 6598WAT     H220197   5.030   6.905   5.519  0.8132 -0.3209 -0.7129
 6599WAT      O20198   1.830   4.084   3.601 -0.2918 -0.3154 -0.4439
 6599WAT     H120199   1.858   3.994   3.616 -1.3067 -0.8195 -1.4252
 6599WAT     H220200   1.734   4.078   3.593 -0.4373  0.9341  0.0135
 6600WAT      O20201   5.681   5.425   1.206 -1.1371  0.1573 -0.2093
 6600WAT     H120202   5.682   5.418   1.301 -1.8696 -0.0580 -0.2089
 6600WAT     H220203   5.718   5.512   1.188  0.0287 -0.2460  0.2060
 6601WAT      O20204   5.026   1.785   2.594  0.0291 -0.6196  0.7213
 6601WAT     H120205   5.028   1.880   2.585 -0.8843 -0.6063  0.5445
 6601WAT     H220206   5.097   1.765   2.655  0.3687  0.1486  0.5923
 6602WAT      O20207   3.088   1.579   1.261 -0.3588  0.4023 -0.1708
 6602WAT     H120208   3.065   1.518   1.190  0.5026  0.3166 -0.3867
 6602WAT     H220209   3.012   1.577   1.319 -0.1252 -1.3763  0.1598
 6603WAT      O20210   1.345   6.416   5.968 -0.0419  0.1849  0.2889
 6603WAT     H120211   1.340   6.511   5.978  0.9537  0.1800  1.0016
 6603WAT     H220212   1.424   6.391   6.015  0.2690 -0.8841 -0.7538
 6604WAT      O20213   5.847   2.129   1.781 -0.4489  0.4121 -0.0167
 6604WAT     H120214   5.918   2.111   1.843 -1.8362 -1.0532  1.2031
 6604WAT     H220215   5.799   2.047   1.775 -1.3419  1.0145 -1.7959
 6605WAT      O20216   3.020   5.218   1.574  0.4748  0.3639  0.1412
 6605WAT     H120217   3.012   5.312   1.554 -0.8192  0.1390 -0.4987
 6605WAT     H220218   2.949   5.201   1.636  1.7247  0.1263  1.5589
 6606WAT      O20219   7.503   2.712   3.102  0.2129 -0.0777  0.0531
 6606WAT     H120220   7.519   2.622   3.071  0.2304  0.3778 -1.3199
 6606WAT     H220221   7.410   2.715   3.120  0.4022 -0.6940  1.2324
 6607WAT      O20222   7.558   7.156   5.960 -0.1482 -0.1868 -0.0316
 6607WAT     H120223   7.640   7.186   6.000  0.1236  0.9032 -1.3269
 6607WAT     H220224   7.584   7.121   5.875 -1.1890  2.3796 -1.5386
 6608WAT      O20225   1.663   4.902   2.092  0.0853 -0.3311  0.4946
 6608WAT     H120226   1.680   4.940   2.005  1.1587 -0.5018  0.6188
 6608WAT     H220227   1.597   4.835   2.076  1.3774 -1.4302 -0.4755
 6609WAT      O20228   6.136   0.958   0.321 -0.0151 -0.3334  0.1843
 6609WAT     H120229   6.097   1.021   0.382  0.3313 -1.1450  1.2611
 6609WAT     H220230   6.207   1.006   0.280  0.5499 -0.1402  1.3435
 6610WAT      O20231   1.924   5.874   3.683  0.7003  0.7169  0.2373
 6610WAT     H120232   1.838   5.831   3.690  0.4550  0.7511 -1.8136
 6610WAT     H220233   1.935   5.919   3.766  0.9296 -3.1654  2.5489
 6611WAT      O20234   5.442   0.513   2.685 -0.2407  0.2251  0.1416
 6611WAT     H120235   5.496   0.534   2.761 -0.3772  1.7948 -0.1654
 6611WAT     H220236   5.408   0.425   2.704 -1.1190  0.9725  2.4182
 6612WAT      O20237   4.795   4.398   4.555 -0.6446  0.2827 -0.1278
 6612WAT     H120238   4.792   4.307   4.584 -0.5810  0.8408  1.7477
 6612WAT     H220239   4.773   4.449   4.633  1.6836  1.9928 -0.4612
 6613WAT      O20240   0.067   0.628   3.911  0.0637 -0.3362  0.3726
 6613WAT     H120241   0.003   0.697   3.927 -0.4646 -0.7350 -0.0230
 6613WAT     H220242   0.138   0.672   3.865  0.4434  0.2735  1.4969
 6614WAT      O20243   2.493   4.507   0.717 -0.5469  0.1519 -0.8253
 6614WAT     H120244   2.556   4.444   0.750  0.7341  1.0082 -1.5730
 6614WAT     H220245   2.489   4.576   0.783 -0.3281  0.3394 -1.0067
 6615WAT      O20246   1.059   2.993   6.093 -0.1975 -0.0256  0.1879
 6615WAT     H120247   1.060   3.089   6.086  0.8151  0.2001  2.4274
 6615WAT     H220248   0.967   2.969   6.083 -0.3869  1.0887 -1.0778
 6616WAT      O20249   1.850   5.098   5.088 -0.2473  0.5104  0.1801
 6616WAT     H120250   1.884   5.127   5.173 -0.3990  1.1322  0.0369
 6616WAT     H220251   1.872   5.005   5.084  0.9732  0.7689  0.3183
 6617WAT      O20252   2.490   1.748   0.355 -0.5396  0.0991 -0.4380
 6617WAT     H120253   2.572   1.769   0.310  0.4417  3.4872  2.5389
 6617WAT     H220254   2.439   1.829   0.352 -2.3019 -0.8898  0.7646
 6618WAT      O20255   0.510   2.205   2.630 -0.0449  0.3457  0.7082
 6618WAT     H120256   0.514   2.111   2.610  1.1358  0.6545 -0.7047
 6618WAT     H220257   0.416   2.224   2.634 -0.3840 -0.4012 -1.7500
 6619WAT      O20258   3.881   6.241   4.227 -0.1115 -0.0003  0.1535
 6619WAT     H120259   3.935   6.165   4.204  0.0171 -0.3940  1.7047
 6619WAT     H220260   3.867   6.233   4.321 -2.8114  0.1450 -0.1707
 6620WAT      O20261   7.164   1.964   5.303 -0.0276  0.1030  0.2942
 6620WAT     H120262   7.168   2.059   5.295  0.0296  0.1304  0.6314
 6620WAT     H220263   7.074   1.946   5.328  0.1077  0.1179  0.8166
 6621WAT      O20264   0.945   1.582   4.332  0.0971  0.4492 -0.1120
 6621WAT     H120265   0.885   1.655   4.348 -1.4466 -0.6683 -0.5215
 6621WAT     H220266   1.013   1.619   4.275 -0.7863  1.5046 -0.5144
 6622WAT      O20267   0.198   7.011   1.319  0.3793 -0.4328  0.0113
 6622WAT     H120268   0.187   7.074   1.390  1.6639 -1.2815  1.0063
 6622WAT     H220269   0.115   6.964   1.317 -0.5324  1.1155 -0.6297
 6623WAT      O20270   1.649   5.946   5.071  0.9954  0.0672  0.0324
 6623WAT     H120271   1.669   5.892   5.147 -0.8918 -0.7282  0.0150
 6623WAT     H220272   1.598   6.019   5.106  0.3672 -0.1481 -0.4013
 6624WAT      O20273   4.401   1.154   0.364 -0.1881 -0.4019  0.0951
 6624WAT     H120274   4.405   1.130   0.457  0.2476  2.6325  0.9637
 6624WAT     H220275   4.338   1.093   0.327  1.7593 -3.6735  1.6577
 6625WAT      O20276   4.678   6.048   0.769 -0.2151  0.0326 -0.2497
 6625WAT     H120277   4.679   5.953   0.784 -0.2914 -0.4622 -2.9690
 6625WAT     H220278   4.650   6.085   0.853 -0.9204 -2.3790  0.6578
 6626WAT      O20279   2.482   1.611   1.960 -0.5107 -0.7859 -0.0943
 6626WAT     H120280   2.484   1.639   2.052 -1.9669 -1.0082  0.0388
 6626WAT     H220281   2.417   1.540   1.959 -2.4263  0.8701 -1.7146
 6627WAT      O20282   1.374   3.131   1.717  0.0353 -0.1608  0.2515
 6627WAT     H120283   1.446   3.191   1.697  1.7771 -2.2075 -0.0019
 6627WAT     H220284   1.363   3.138   1.812 -0.2074  0.9745  0.1517
 6628WAT      O20285   0.298   1.616   0.583 -0.4145 -0.4598 -0.0018
 6628WAT     H120286   0.237   1.543   0.593 -0.8251 -0.0605  0.4639
 6628WAT     H220287   0.326   1.636   0.673 -1.5769  1.0137  0.0785
 6629WAT      O20288   6.537   0.228   5.379 -0.7413 -0.0626  0.5567
 6629WAT     H120289   6.527   0.183   5.463 -0.3178  1.2104  1.3215
 6629WAT     H220290   6.447   0.248   5.352 -0.8429  0.4790  1.2640
 6630WAT      O20291   5.177   4.155   0.795 -0.2738  0.0935  0.3328
 6630WAT     H120292   5.143   4.125   0.879  2.8123 -1.8220  1.0756
 6630WAT     H220293   5.240   4.223   0.817  1.0904 -0.9075 -0.2617
 6631WAT      O20294   1.356   0.821   0.482 -0.2997 -0.1776  0.2577
 6631WAT     H120295   1.263   0.841   0.494 -0.6501 -1.9145  0.7439
 6631WAT     H220296   1.402   0.886   0.536 -1.2888  0.0103  0.9039
 6632WAT      O20297   7.461   7.179   5.429  0.3281 -0.1185 -0.0775
 6632WAT     H120298   7.553   7.207   5.436  0.0660  1.0619 -1.0324
 6632WAT     H220299   7.421   7.244   5.371 -0.4978 -2.1167 -1.8750
 6633WAT      O20300   0.664   7.077   0.898  0.1521 -0.3111  0.4476
 6633WAT     H120301   0.634   6.988   0.880 -2.8967  0.6879 -0.0193
 6633WAT     H220302   0.648   7.090   0.991 -0.0278 -0.0483  0.3810
 6634WAT      O20303   0.556   5.878   4.543  0.2277 -0.1123 -0.9791
 6634WAT     H120304   0.537   5.960   4.589 -1.8475 -1.2947  0.4598
 6634WAT     H220305   0.597   5.823   4.610  2.1715 -0.0922 -2.0986
 6635WAT      O20306   4.625   0.976   5.312  0.2964 -0.0152  0.0761
 6635WAT     H120307   4.592   0.915   5.247  0.9584  0.7393 -0.9916
 6635WAT     H220308   4.565   0.966   5.386  0.1015 -1.5787 -0.2560
 6636WAT      O20309   0.990   3.789   4.791 -0.4956 -0.0403 -0.1966
 6636WAT     H120310   1.062   3.800   4.852  0.3732 -1.1705 -0.9631
 6636WAT     H220311   0.923   3.743   4.841 -0.2065 -0.0411  0.1944
 6637WAT      O20312   0.526   0.174   6.025 -0.2136  0.2574 -0.0694
 6637WAT     H120313   0.552   0.082   6.013  1.6159  0.9646 -2.3171
 6637WAT     H220314   0.606   0.224   6.005 -1.3827  2.3862  0.2850
 6638WAT      O20315   3.950   6.687   2.074 -0.5637 -0.3231 -0.1383
 6638WAT     H120316   3.872   6.691   2.018  0.4046 -0.4889 -1.5578
 6638WAT     H220317   3.916   6.667   2.161 -2.0758 -0.6830 -0.7744
 6639WAT      O20318   1.759   5.149   0.004 -0.3333  0.4046  0.2086
 6639WAT     H120319   1.789   5.113  -0.080 -4.0993  1.3030 -1.7368
 6639WAT     H220320   1.719   5.075   0.050  0.4413  0.2152  0.5959
 6640WAT      O20321   1.866   4.008   0.145 -0.5299 -0.0053 -0.4460
 6640WAT     H120322   1.868   3.913   0.148 -1.0388 -0.0207 -0.5896
 6640WAT     H220323   1.779   4.032   0.177 -0.1358  0.4396  0.3312
 6641WAT      O20324   2.813   5.009   3.270 -0.3566  0.2018  0.0069
 6641WAT     H120325   2.778   5.002   3.359 -1.3411  0.9468 -0.2996
 6641WAT     H220326   2.874   4.937   3.262 -0.5667 -0.1175  1.1566
 6642WAT      O20327   3.776   1.606   5.102 -0.0245 -0.2801  0.2457
 6642WAT     H120328   3.871   1.601   5.095 -0.1700 -1.2781 -2.8958
 6642WAT     H220329   3.757   1.697   5.124  1.6371  0.1532 -0.0165
 6643WAT      O20330   0.801   6.335   5.190  0.7913  0.7247  0.0905
 6643WAT     H120331   0.789   6.347   5.095 -0.1389  2.3442  0.3744
 6643WAT     H220332   0.892   6.306   5.199  0.9574  0.7452 -1.2840
 6644WAT      O20333   2.126   0.938   0.117 -0.5372 -0.0230  0.4984
 6644WAT     H120334   2.125   0.861   0.059 -2.0816  0.4685 -0.1526
 6644WAT     H220335   2.219   0.959   0.125 -0.0734 -1.8563  0.5789
 6645WAT      O20336   1.060   2.607   1.700  0.1543  0.2202 -0.2543
 6645WAT     H120337   1.074   2.650   1.784  0.3587 -0.6597  0.1786
 6645WAT     H220338   0.992   2.659   1.657 -0.4267  0.2997  0.7373
 6646WAT      O20339   4.627   6.538   3.918 -0.1473  0.1413  0.4742
 6646WAT     H120340   4.570   6.610   3.945 -1.5181 -0.8688  0.3800
 6646WAT     H220341   4.671   6.570   3.839 -2.3810  0.1222 -0.8448
 6647WAT      O20342   5.418   4.494   0.159 -0.0057  0.0460  0.2743
 6647WAT     H120343   5.364   4.464   0.086  1.2203 -0.2216 -0.5471
 6647WAT     H220344   5.443   4.415   0.205 -0.5477  0.1938  0.8336
 6648WAT      O20345   1.476   1.102   2.560  0.4874 -0.3772  0.2821
 6648WAT     H120346   1.547   1.063   2.610 -0.0170 -0.8252  0.6580
 6648WAT     H220347   1.412   1.128   2.626 -0.0279 -0.6520 -0.1052
 6649WAT      O20348   2.416   2.810   3.585 -0.0577  0.3743 -0.1053
 6649WAT     H120349   2.442   2.860   3.508  1.3933 -1.3537 -0.8328
 6649WAT     H220350   2.467   2.728   3.578 -1.5666 -0.7730  1.5026
 6650WAT      O20351   4.972   2.574   1.970 -0.2700 -0.1411 -0.4043
 6650WAT     H120352   5.051   2.619   1.999 -0.4371  1.2762 -1.9649
 6650WAT     H220353   5.004   2.490   1.935  0.1940 -0.7472  1.3904
 6651WAT      O20354   7.518   3.821   3.437 -0.6599 -0.0671 -0.0505
 6651WAT     H120355   7.575   3.879   3.487 -0.9332  1.4399 -1.4188
 6651WAT     H220356   7.560   3.735   3.444  0.7557  0.6329  0.4985
 6652WAT      O20357   1.398   1.767   1.235  0.3454  0.2679  0.0006
 6652WAT     H120358   1.442   1.683   1.217  0.8871  0.7029 -0.7722
 6652WAT     H220359   1.426   1.791   1.323 -1.1842 -1.2020  0.9479
 6653WAT      O20360   0.026   6.453   6.003  0.3986  0.3696 -0.2044
 6653WAT     H120361  -0.028   6.427   6.078  0.1597  1.5153  0.0371
 6653WAT     H220362  -0.037   6.481   5.936  0.6408  0.0997 -0.5509
 6654WAT      O20363   6.160   3.609   1.052  0.1026 -0.0280  0.1288
 6654WAT     H120364   6.097   3.550   1.095 -0.2522 -1.1352 -1.8111
 6654WAT     H220365   6.111   3.690   1.040  0.3510  0.4663  2.1585
 6655WAT      O20366   5.484   1.048   0.689  0.5287  0.3215 -0.4057
 6655WAT     H120367   5.569   1.085   0.714  0.0410  1.3422 -0.1954
 6655WAT     H220368   5.499   0.954   0.685  1.4175  0.4008  0.6156
 6656WAT      O20369   3.954   5.142   1.374  0.2367  0.8576 -0.0857
 6656WAT     H120370   4.010   5.083   1.323 -1.4956 -1.3530  0.4023
 6656WAT     H220371   3.978   5.124   1.465  0.1383  1.4070  0.0502
 6657WAT      O20372   1.059   5.538   4.522 -0.3974  0.6362  0.2933
 6657WAT     H120373   1.116   5.462   4.520 -2.2266 -0.7839  0.1460
 6657WAT     H220374   1.059   5.565   4.614 -0.6872 -0.3008  0.5765
 6658WAT      O20375   6.263   2.499   4.433 -0.1026 -0.6154 -0.4493
 6658WAT     H120376   6.301   2.555   4.500  0.1171 -0.9954 -0.2514
 6658WAT     H220377   6.329   2.492   4.365  0.4679 -1.7896  0.1836
 6659WAT      O20378   2.331   6.031   2.341  0.0910  0.0484  0.0500
 6659WAT     H120379   2.314   5.979   2.419  2.4902 -0.0876  0.5351
 6659WAT     H220380   2.294   6.117   2.360  1.4772  0.3048  1.7572
 6660WAT      O20381   6.849   6.358   4.807 -0.3554  0.3835  0.3403
 6660WAT     H120382   6.809   6.443   4.826  1.0481  0.8900  1.1059
 6660WAT     H220383   6.814   6.300   4.875  0.2032  0.8287  1.0213
 6661WAT      O20384   0.432   2.480   4.434 -0.2445 -0.2510  0.4869
 6661WAT     H120385   0.511   2.510   4.389 -1.2552  0.5082 -0.8589
 6661WAT     H220386   0.427   2.534   4.513 -0.6318  1.3698 -0.5953
 6662WAT      O20387   4.236   5.983   3.741 -0.3911  0.1850  0.1685
 6662WAT     H120388   4.144   5.995   3.718 -1.0202  1.2031  2.9028
 6662WAT     H220389   4.248   5.889   3.746 -0.6699 -0.0415 -2.2346
 6663WAT      O20390   6.401   0.394   4.916  0.2826 -0.2405 -0.2732
 6663WAT     H120391   6.339   0.391   4.990  0.7503 -0.6427  0.1083
 6663WAT     H220392   6.487   0.389   4.957  0.5996  0.9460 -0.7611
 6664WAT      O20393   2.414   0.971   4.250  0.3830 -0.1820  0.5034
 6664WAT     H120394   2.335   1.015   4.220  1.0254  1.0228  0.5495
 6664WAT     H220395   2.435   1.014   4.333  0.5272 -1.1768  0.9955
 6665WAT      O20396   4.499   0.496   4.882  0.3819 -0.0219  0.0759
 6665WAT     H120397   4.527   0.481   4.972 -1.0404  0.4955  0.6389
 6665WAT     H220398   4.494   0.592   4.875  3.8535  0.2019 -1.6815
 6666WAT      O20399   2.328   1.391   4.749 -0.3772 -0.5512  0.4500
 6666WAT     H120400   2.305   1.324   4.813 -0.2609  0.5169  1.6445
 6666WAT     H220401   2.271   1.465   4.769 -2.5496 -1.1558 -2.6257
 6667WAT      O20402   6.944   4.425   4.555  0.3523  0.7983  0.4326
 6667WAT     H120403   6.992   4.448   4.476  0.5451  1.2000  0.6644
 6667WAT     H220404   6.902   4.506   4.583 -1.0719  0.3080 -0.1704
 6668WAT      O20405   1.173   0.307   3.939 -0.4742 -0.1590  0.5806
 6668WAT     H120406   1.138   0.249   3.871  0.4039 -0.5523  0.4398
 6668WAT     H220407   1.123   0.285   4.017  0.4244 -1.7645  0.7481
 6669WAT      O20408   5.208   0.007   2.076 -0.7505 -0.1765 -0.2666
 6669WAT     H120409   5.137  -0.051   2.050 -0.4956  0.2681 -2.1004
 6669WAT     H220410   5.270  -0.049   2.123 -2.8614 -0.3195  2.6194
 6670WAT      O20411   6.958   5.496   5.457 -0.0586 -0.4064  0.5325
 6670WAT     H120412   6.868   5.465   5.453 -0.3988  0.6602 -1.0960
 6670WAT     H220413   6.956   5.581   5.414  1.7444 -0.3943  0.3947
 6671WAT      O20414   5.945   0.967   1.460 -0.4140  0.1267  0.0736
 6671WAT     H120415   5.850   0.964   1.450 -0.2855 -0.8721 -0.9951
 6671WAT     H220416   5.964   0.898   1.524 -0.4738  0.8790  0.9135
 6672WAT      O20417   4.607   1.833   3.757 -0.0144  0.6030 -0.0842
 6672WAT     H120418   4.649   1.831   3.670  0.0111 -0.8194 -0.0670
 6672WAT     H220419   4.598   1.740   3.781 -0.1525  0.9737  1.3753
 6673WAT      O20420   0.197   7.000   3.657  0.0213  0.2975 -0.2949
 6673WAT     H120421   0.284   6.968   3.683 -0.4108  0.1739  1.0876
 6673WAT     H220422   0.139   6.974   3.729 -0.7536  2.2972 -0.1197
 6674WAT      O20423   0.470   6.662   6.003 -0.6606 -0.0334  0.1685
 6674WAT     H120424   0.487   6.720   5.929 -0.5066 -0.4882 -0.1607
 6674WAT     H220425   0.512   6.705   6.077 -2.2613  1.2919  0.3711
 6675WAT      O20426   0.752   4.903   0.256 -0.3805  0.0919 -0.5022
 6675WAT     H120427   0.702   4.983   0.243  0.2204  0.5382 -0.1223
 6675WAT     H220428   0.767   4.899   0.351 -0.7712 -0.6973 -0.4661
 6676WAT      O20429   2.818   7.075   1.267 -0.6661  0.2740 -0.1240
 6676WAT     H120430   2.784   7.089   1.356 -0.3350  0.3332 -0.0085
 6676WAT     H220431   2.795   7.156   1.221 -1.7961 -0.1820 -0.3933
 6677WAT      O20432   3.352   0.849   4.932 -0.3176  0.1714 -0.0130
 6677WAT     H120433   3.407   0.871   4.857 -0.7102 -1.8404 -0.9668
 6677WAT     H220434   3.288   0.920   4.936  0.3728  0.8694 -0.9004
 6678WAT      O20435   6.880   6.009   4.321  0.1978 -0.0714  0.2648
 6678WAT     H120436   6.918   5.937   4.271 -0.4003 -0.0062 -0.2970
 6678WAT     H220437   6.876   5.976   4.411  1.1601 -0.2363  0.2502
 6679WAT      O20438   4.815   2.421   6.037 -0.0599  0.0194  0.9726
 6679WAT     H120439   4.722   2.418   6.060 -0.2265  0.5074  0.4143
 6679WAT     H220440   4.857   2.357   6.094 -0.9029 -0.9983  0.4926
 6680WAT      O20441   1.403   2.314   2.469  0.1040 -0.0668 -0.3750
 6680WAT     H120442   1.497   2.329   2.478  0.2863 -0.5259 -1.3520
 6680WAT     H220443   1.362   2.397   2.493  0.7164 -0.0768  0.7341
 6681WAT      O20444   4.853   0.515   2.205  0.4706  0.0402 -0.1528
 6681WAT     H120445   4.838   0.573   2.131 -1.2370  0.2576  0.3119
 6681WAT     H220446   4.922   0.557   2.256  0.5928  0.6739 -0.8367
 6682WAT      O20447   6.568   3.963   6.093 -0.1235  0.3857  0.2708
 6682WAT     H120448   6.567   3.882   6.143 -0.7946  0.8500  1.0176
 6682WAT     H220449   6.604   4.029   6.153  2.2628  0.2915 -0.9170
 6683WAT      O20450   2.520   6.638   0.620 -0.6306  0.4954 -0.2461
 6683WAT     H120451   2.480   6.612   0.537  0.5231  0.7461 -0.9126
 6683WAT     H220452   2.450   6.629   0.685 -1.1665 -1.1620 -0.9858
 6684WAT      O20453   7.269   3.913   2.288 -0.4905  0.1441  0.6859
 6684WAT     H120454   7.365   3.918   2.290 -0.3950 -1.1616  0.2610
 6684WAT     H220455   7.244   3.965   2.212 -0.0076 -0.6840 -0.0517
 6685WAT      O20456   1.095   3.735   2.700  0.0957  0.1744 -0.1675
 6685WAT     H120457   1.181   3.760   2.735  0.4543 -2.1521  0.8377
 6685WAT     H220458   1.036   3.741   2.775 -0.0144 -0.8615 -0.1571
 6686WAT      O20459   5.061   6.994   2.023  0.1532 -0.2279 -0.6614
 6686WAT     H120460   5.025   6.981   1.935 -1.0722 -0.1851 -0.1890
 6686WAT     H220461   5.093   6.908   2.048  1.6583  0.0130 -1.6085
 6687WAT      O20462   3.112   4.318   5.354 -0.5574  0.5873 -0.2072
 6687WAT     H120463   3.076   4.233   5.379  0.8858 -0.3782 -1.2920
 6687WAT     H220464   3.046   4.381   5.384 -1.7201 -0.8971  0.5063
 6688WAT      O20465   2.907   1.930   3.538  0.3313  0.1821  0.1805
 6688WAT     H120466   2.850   1.997   3.501 -0.8391 -1.2001 -0.6352
 6688WAT     H220467   2.989   1.940   3.490  0.1552  0.9896  0.0292
 6689WAT      O20468   1.690   3.193   5.566 -0.2430 -0.9734  0.3812
 6689WAT     H120469   1.607   3.220   5.604 -0.8850 -0.2833 -1.3913
 6689WAT     H220470   1.734   3.275   5.544  0.0538 -1.3368 -0.4281
 6690WAT      O20471   7.024   0.082   0.589 -0.1785 -0.0571  0.7411
 6690WAT     H120472   7.046   0.060   0.680 -0.6726  0.6802  1.0461
 6690WAT     H220473   7.000   0.174   0.592  0.3223  0.1146 -0.2423
 6691WAT      O20474   6.048   2.871   0.279  0.2931  0.4601 -0.0667
 6691WAT     H120475   6.119   2.845   0.338  0.5158 -2.4864 -1.4620
 6691WAT     H220476   6.092   2.924   0.212  1.1630 -0.9010 -0.6264
 6692WAT      O20477   0.160   5.791   1.793  0.1418  0.0046  0.1529
 6692WAT     H120478   0.198   5.868   1.834 -2.0486  1.9324 -1.2322
 6692WAT     H220479   0.071   5.786   1.826  0.0912 -1.6962 -0.1279
 6693WAT      O20480   1.642   7.185   3.719 -0.5752 -0.0651 -0.1793
 6693WAT     H120481   1.723   7.158   3.761 -2.1583 -0.4569  2.8992
 6693WAT     H220482   1.599   7.241   3.783 -2.5364  0.5722 -1.9258
 6694WAT      O20483   3.874   3.160   5.639  0.0849 -0.1439  0.7410
 6694WAT     H120484   3.963   3.168   5.675 -0.0434 -0.4837  1.1418
 6694WAT     H220485   3.829   3.102   5.700 -0.0966 -0.8696 -0.0616
 6695WAT      O20486   0.628   4.774   3.203  0.4870 -0.7161  0.7426
 6695WAT     H120487   0.604   4.699   3.148 -0.2033 -0.5661  0.8348
 6695WAT     H220488   0.721   4.762   3.220  0.5987 -1.0265 -0.0552
 6696WAT      O20489   4.477   0.810   2.113 -0.4858 -0.0890  0.2655
 6696WAT     H120490   4.539   0.862   2.063  0.7837 -0.4712  1.3791
 6696WAT     H220491   4.425   0.875   2.160  0.1486  0.2179  0.5637
 6697WAT      O20492   1.034   6.128   5.664 -0.1726  0.5935 -0.2233
 6697WAT     H120493   1.116   6.173   5.686 -0.3605  1.5495 -1.3727
 6697WAT     H220494   0.980   6.136   5.743 -1.0346  4.3608 -1.0255
 6698WAT      O20495   0.579   7.113   3.886 -0.3291 -0.3785  0.6698
 6698WAT     H120496   0.551   7.024   3.909  0.6827 -0.9774 -0.3406
 6698WAT     H220497   0.668   7.102   3.854  0.9824  1.4151  3.3623
 6699WAT      O20498   6.670   1.582   4.813  0.3557 -0.4123  0.3580
 6699WAT     H120499   6.681   1.548   4.901 -1.8470  0.5874  1.0869
 6699WAT     H220500   6.589   1.542   4.781  0.5344  0.0850 -0.7844
 6700WAT      O20501   1.711   6.246   2.955  0.0769  0.0617 -0.6487
 6700WAT     H120502   1.804   6.238   2.976 -0.4174 -1.0975  1.3371
 6700WAT     H220503   1.671   6.166   2.987 -1.4838  0.0011 -2.5230
 6701WAT      O20504   6.006   3.799   4.096 -0.0823  0.1849 -0.1504
 6701WAT     H120505   6.090   3.843   4.084 -1.0116  2.5946  1.5665
 6701WAT     H220506   6.003   3.777   4.189 -1.8618  1.3199  0.0951
 6702WAT      O20507   5.898   5.167   3.771  0.0886  0.2806 -0.2014
 6702WAT     H120508   5.853   5.248   3.795 -2.7950 -1.0863 -0.5643
 6702WAT     H220509   5.827   5.105   3.752  2.0925 -2.9444  1.8889
 6703WAT      O20510   4.769   4.522   0.776  0.0709  0.2890 -0.7888
 6703WAT     H120511   4.721   4.447   0.811 -0.1719  1.0247  0.5443
 6703WAT     H220512   4.861   4.496   0.783  0.0010  0.1994 -0.0818
 6704WAT      O20513   5.159   0.710   4.646 -0.2135  0.0362  0.0932
 6704WAT     H120514   5.230   0.648   4.630 -0.5293 -0.0957 -0.8585
 6704WAT     H220515   5.187   0.790   4.602  1.5820  1.6477  3.7320
 6705WAT      O20516   0.076   1.269   0.159 -0.8681  0.0215 -0.4747
 6705WAT     H120517   0.011   1.274   0.229  0.5618  1.4562  0.8329
 6705WAT     H220518   0.111   1.180   0.165  1.1860  0.8474  2.6284
 6706WAT      O20519   5.636   6.495   3.880  0.2538 -0.5746  0.5053
 6706WAT     H120520   5.630   6.504   3.785  1.1512 -0.7357  0.4218
 6706WAT     H220521   5.728   6.513   3.900  0.2446 -1.2849  1.2511
 6707WAT      O20522   1.232   1.814   2.345  0.1350  0.7646  0.3964
 6707WAT     H120523   1.197   1.817   2.255 -1.5438  1.9459  1.0302
 6707WAT     H220524   1.237   1.906   2.371  0.5001  0.4295  1.5479
 6708WAT      O20525   5.307   5.588   0.646 -0.1567  0.3256 -0.5572
 6708WAT     H120526   5.294   5.547   0.561 -1.7889  1.2837 -0.8319
 6708WAT     H220527   5.236   5.554   0.701  1.8187 -1.5372  0.9793
 6709WAT      O20528   0.462   1.367   6.201 -0.4249  0.0091  0.7850
 6709WAT     H120529   0.452   1.451   6.244  0.3978 -0.4880  1.9744
 6709WAT     H220530   0.423   1.304   6.261 -0.6615 -0.5210  0.0942
 6710WAT      O20531   0.700   1.608   6.070 -0.1533  0.2173  0.8094
 6710WAT     H120532   0.630   1.653   6.023 -0.1753 -0.4509  0.1893
 6710WAT     H220533   0.697   1.518   6.038  1.9992  0.5068 -0.4267
 6711WAT      O20534   3.490   5.045   1.957  0.1648  0.2113 -0.0906
 6711WAT     H120535   3.489   5.106   2.030  2.1787  0.0128  0.1715
 6711WAT     H220536   3.458   5.095   1.882 -0.5196  0.8416  0.6128
 6712WAT      O20537   0.944   6.387   4.779 -0.3968  0.3031  0.2022
 6712WAT     H120538   0.877   6.349   4.835  0.1290 -1.4909 -0.3406
 6712WAT     H220539   0.971   6.467   4.825 -1.9416  0.3594  1.0813
 6713WAT      O20540   6.628   3.216   4.405  0.5441 -0.5229 -0.0035
 6713WAT     H120541   6.540   3.181   4.408 -0.4476  1.7153 -0.8675
 6713WAT     H220542   6.636   3.267   4.486  0.5993  0.2099 -0.4573
 6714WAT      O20543   3.480   0.773   0.660  0.3374  0.2538 -0.0925
 6714WAT     H120544   3.476   0.730   0.746 -0.7272  0.7076  0.0951
 6714WAT     H220545   3.556   0.831   0.666  1.6922 -1.3959 -0.2807
 6715WAT      O20546   5.056   4.437   2.815 -0.1097  0.3398 -0.3995
 6715WAT     H120547   5.100   4.520   2.794  0.5982 -0.1741 -1.0155
 6715WAT     H220548   4.993   4.425   2.745 -0.6305  0.6391  0.0095
 6716WAT      O20549   6.585   6.767   2.852  0.0147 -0.3410 -1.0028
 6716WAT     H120550   6.539   6.796   2.774  0.1407  2.2809 -0.2141
 6716WAT     H220551   6.642   6.840   2.874  0.1721 -1.1026  1.3930
 6717WAT      O20552   3.913   6.781   6.214  0.2332  0.1614 -0.1361
 6717WAT     H120553   3.999   6.775   6.254 -0.1397  1.8277  1.0560
 6717WAT     H220554   3.896   6.876   6.208 -1.1683 -0.1093 -1.0936
 6718WAT      O20555   4.209   2.700   5.314  0.1290 -0.1049  0.0347
 6718WAT     H120556   4.123   2.710   5.354  1.0964 -2.7148  3.1942
 6718WAT     H220557   4.201   2.623   5.258  0.0630  0.5381 -0.8548
 6719WAT      O20558   4.917   7.050   1.391  0.3717 -0.4907 -0.3211
 6719WAT     H120559   4.866   7.082   1.465  0.6852 -1.0642  0.1431
 6719WAT     H220560   4.894   6.958   1.384  1.8978 -0.9467  0.3553
 6720WAT      O20561   3.250   1.556   6.056  0.1089 -0.2332  0.1222
 6720WAT     H120562   3.193   1.630   6.077 -0.2632 -0.4335 -0.1710
 6720WAT     H220563   3.314   1.554   6.126  0.3820  0.6356 -0.0965
 6721WAT      O20564   6.512   1.570   5.197 -0.2349 -0.1002 -0.7775
 6721WAT     H120565   6.507   1.488   5.247 -1.1602  0.1426 -0.4483
 6721WAT     H220566   6.452   1.629   5.242  0.6136  0.8551 -0.8705
 6722WAT      O20567   7.534   5.316   3.306 -0.0067  0.0411 -0.1945
 6722WAT     H120568   7.463   5.259   3.337 -1.0812  2.0756  1.3779
 6722WAT     H220569   7.601   5.309   3.374 -1.1623  2.3488  1.3097
 6723WAT      O20570   3.202   4.422   3.912  0.3837 -0.2645  0.5965
 6723WAT     H120571   3.287   4.397   3.875  0.8678  2.2894 -0.1868
 6723WAT     H220572   3.214   4.411   4.006  1.7333  0.3513  0.5299
 6724WAT      O20573   4.926   4.531   1.490 -0.2830  0.0700 -0.0618
 6724WAT     H120574   4.927   4.547   1.584  0.8676  1.1494 -0.2209
 6724WAT     H220575   4.882   4.447   1.480 -1.3615  0.4340  1.3490
 6725WAT      O20576   5.761   0.446   1.538  0.3918 -0.1139 -0.6096
 6725WAT     H120577   5.754   0.497   1.458  1.2115 -0.2823 -0.7938
 6725WAT     H220578   5.717   0.499   1.605  0.5875  0.4817 -0.9515
 6726WAT      O20579   7.088   4.489   4.317 -0.4265  0.2069  0.0672
 6726WAT     H120580   7.167   4.435   4.312  0.6485  1.6968  0.4474
 6726WAT     H220581   7.050   4.483   4.229  0.1414 -0.4618 -0.1429
 6727WAT      O20582   1.785   0.604   3.705 -0.2859 -0.3385  0.6227
 6727WAT     H120583   1.702   0.611   3.659 -0.3211 -0.3398  0.6862
 6727WAT     H220584   1.839   0.548   3.649 -0.1299  0.1277  0.2948
 6728WAT      O20585   2.294   5.908   2.600  0.3344  0.0104  0.6102
 6728WAT     H120586   2.323   5.817   2.591 -0.0850 -0.0497 -0.1734
 6728WAT     H220587   2.317   5.931   2.690 -1.8899 -1.7222  1.7152
 6729WAT      O20588   6.146   3.712   3.559  0.0319 -0.9791 -0.0586
 6729WAT     H120589   6.118   3.690   3.471 -0.2802 -2.0141  0.2834
 6729WAT     H220590   6.115   3.801   3.573 -4.2299 -2.3404  0.6935
 6730WAT      O20591   1.758   1.220   5.398  0.1235  0.1624 -0.1099
 6730WAT     H120592   1.761   1.125   5.407 -0.5786 -0.0619 -1.7969
 6730WAT     H220593   1.840   1.242   5.354  0.7855  0.5013  1.2344
 6731WAT      O20594   6.589   1.299   3.293  0.1937 -0.1642 -0.0699
 6731WAT     H120595   6.586   1.212   3.331  0.7078 -0.5783 -0.9398
 6731WAT     H220596   6.515   1.345   3.332  0.8756 -0.4521  1.6407
 6732WAT      O20597   0.275   5.766   5.149  0.3417  0.5358 -0.5839
 6732WAT     H120598   0.228   5.684   5.164  1.7293 -0.0374  1.0472
 6732WAT     H220599   0.236   5.827   5.212  0.4260  0.6241 -0.6172
 6733WAT      O20600   7.362   5.499   5.696  0.2619  0.1110 -0.5565
 6733WAT     H120601   7.450   5.476   5.727 -1.5246  0.2440  6.0895
 6733WAT     H220602   7.374   5.585   5.656  3.2191 -0.2555 -0.7447
 6734WAT      O20603   1.279   3.602   0.339  0.7509 -0.1193 -0.2498
 6734WAT     H120604   1.305   3.669   0.403  0.0701  1.9829 -2.0650
 6734WAT     H220605   1.183   3.608   0.336  0.8260  1.4096 -2.9436
 6735WAT      O20606   2.219   6.249   1.455  0.3025  0.2904 -0.4173
 6735WAT     H120607   2.172   6.252   1.539  0.3155 -1.6019 -0.2820
 6735WAT     H220608   2.300   6.297   1.471  0.4212 -0.2480  0.7705
 6736WAT      O20609   1.298   6.682   5.718 -0.2476  0.3880  0.1642
 6736WAT     H120610   1.240   6.648   5.785  0.6096 -0.5396  0.4627
 6736WAT     H220611   1.323   6.769   5.749 -3.0973  1.7488 -1.0003
 6737WAT      O20612   6.580   4.080   3.815 -0.0178  0.8120 -0.1790
 6737WAT     H120613   6.583   3.994   3.774 -0.1644  0.7012  0.0374
 6737WAT     H220614   6.669   4.095   3.846 -0.2202  0.2925  0.6782
 6738WAT      O20615   6.874   4.654   5.615  0.1483 -0.7821 -0.5307
 6738WAT     H120616   6.907   4.566   5.628  2.0585 -0.0338  0.0013
 6738WAT     H220617   6.859   4.687   5.704 -1.7261 -0.9391 -0.7374
 6739WAT      O20618   3.822   5.442   4.649 -0.1901 -0.5200  0.0805
 6739WAT     H120619   3.820   5.419   4.742  0.7558  0.9493  0.4911
 6739WAT     H220620   3.731   5.439   4.622 -0.4690 -1.0805  1.0273
 6740WAT      O20621   5.243   3.013   3.360  0.0254 -0.4174  0.5732
 6740WAT     H120622   5.230   3.069   3.283  0.7107 -0.7500  0.1996
 6740WAT     H220623   5.304   2.945   3.329 -0.8589 -1.4191  0.9897
 6741WAT      O20624   4.730   0.822   1.882 -0.3524  0.3687 -0.3620
 6741WAT     H120625   4.742   0.821   1.977 -0.7368  1.3443 -0.2825
 6741WAT     H220626   4.724   0.730   1.857  0.3448  0.0790  0.4788
 6742WAT      O20627   0.838   1.554   3.551 -0.0663  0.2277 -0.4654
 6742WAT     H120628   0.812   1.538   3.461  1.7888  0.9787 -1.1878
 6742WAT     H220629   0.933   1.539   3.552 -0.0245  0.3154  1.3451
 6743WAT      O20630   2.516   4.986   1.224  0.9230  0.0235  0.2109
 6743WAT     H120631   2.428   5.004   1.191  1.6303  1.2167 -1.1367
 6743WAT     H220632   2.512   5.007   1.317 -0.6051 -1.4881  0.5415
 6744WAT      O20633   6.590   6.255   1.417 -0.2340  0.6582  0.0735
 6744WAT     H120634   6.533   6.187   1.453  1.6674 -1.3184 -0.4409
 6744WAT     H220635   6.678   6.219   1.426  0.7620  2.6425 -1.1573
 6745WAT      O20636   0.441   6.687   5.155  0.2588  0.4535 -0.5047
 6745WAT     H120637   0.415   6.699   5.246  0.0382  0.4768 -0.5707
 6745WAT     H220638   0.412   6.766   5.111  1.6487  1.1065 -0.3241
 6746WAT      O20639   1.913   2.226   5.738 -0.0786 -0.0037 -0.3110
 6746WAT     H120640   1.957   2.144   5.756  1.0567  0.3447 -1.3572
 6746WAT     H220641   1.853   2.238   5.812  1.4107 -0.5991  1.0483
 6747WAT      O20642   0.294   1.183   2.741  0.3468  0.6239 -0.3411
 6747WAT     H120643   0.201   1.203   2.748  0.2627  0.0920  0.1094
 6747WAT     H220644   0.309   1.113   2.804  0.8097 -0.1545 -1.2949
 6748WAT      O20645   4.060   6.380   2.121 -0.2904  0.4312 -0.4126
 6748WAT     H120646   4.098   6.462   2.089 -1.1013  1.1261  0.3258
 6748WAT     H220647   4.091   6.373   2.212  1.3277 -1.0934 -1.0330
 6749WAT      O20648   0.215   0.326   0.425  0.0969  0.3517  0.1650
 6749WAT     H120649   0.257   0.359   0.505  0.1194 -0.5220  0.5261
 6749WAT     H220650   0.189   0.405   0.377 -0.2704  0.8872  1.2161
 6750WAT      O20651   2.705   3.680   4.846 -0.2475 -0.3202  0.2099
 6750WAT     H120652   2.730   3.637   4.928  0.3561 -1.4385 -0.5409
 6750WAT     H220653   2.672   3.609   4.791  0.5471  0.2068 -0.9678
 6751WAT      O20654   2.916   0.545   4.254  0.0026  0.0881  0.3333
 6751WAT     H120655   2.855   0.611   4.221 -0.4525 -1.1611 -1.5102
 6751WAT     H220656   2.974   0.592   4.313 -0.4822  2.0651 -0.6898
 6752WAT      O20657   5.085   6.885   4.979  0.1054  0.0612 -0.2871
 6752WAT     H120658   4.995   6.871   5.007  0.1890  1.8851  1.1408
 6752WAT     H220659   5.078   6.909   4.886 -0.9843  0.9594 -0.0004
 6753WAT      O20660   4.039   5.217   1.684  0.1253  0.2255 -0.8340
 6753WAT     H120661   3.967   5.275   1.658 -1.0128 -1.3686 -1.3648
 6753WAT     H220662   3.997   5.149   1.736  0.9981 -1.5478 -2.3658
 6754WAT      O20663   2.771   4.637   1.332  0.0704 -0.1325  0.3258
 6754WAT     H120664   2.842   4.572   1.332 -1.1615 -1.7226 -3.1029
 6754WAT     H220665   2.699   4.594   1.286 -1.6216  2.8907 -0.1153
 6755WAT      O20666   4.246   1.889   0.589 -0.4776  0.3148 -0.6243
 6755WAT     H120667   4.230   1.804   0.631 -1.5072  0.6271 -0.3558
 6755WAT     H220668   4.177   1.946   0.623  0.9161  1.6051  0.1579
 6756WAT      O20669   5.298   0.136   1.178  0.0545  0.0949  0.5199
 6756WAT     H120670   5.286   0.102   1.266  1.7688  1.5520  1.3817
 6756WAT     H220671   5.214   0.177   1.157 -0.3275 -0.1483  1.5173
 6757WAT      O20672   2.388   1.911   4.518 -0.2452 -0.0136 -0.0106
 6757WAT     H120673   2.367   1.833   4.466 -2.5284  1.4584 -1.5109
 6757WAT     H220674   2.383   1.983   4.455 -2.1684  1.7628  2.0217
 6758WAT      O20675   6.332   2.715   1.673  0.6793 -0.0917 -0.2305
 6758WAT     H120676   6.385   2.645   1.635 -0.5459 -0.7154 -0.8407
 6758WAT     H220677   6.295   2.677   1.752 -1.0711 -0.6426 -1.2601
 6759WAT      O20678   5.378   6.123   1.855  0.2830  0.7674 -0.3443
 6759WAT     H120679   5.322   6.189   1.895  0.7231 -1.0563  3.6994
 6759WAT     H220680   5.320   6.048   1.839  1.1097 -0.8148  3.0745
 6760WAT      O20681   2.444   0.145   6.216  0.3845  0.6046 -0.2625
 6760WAT     H120682   2.526   0.100   6.198  1.0434  1.9970 -0.8395
 6760WAT     H220683   2.394   0.083   6.270  2.2259  0.1537  1.0149
 6761WAT      O20684   0.744   0.479   4.126  0.0637  0.3876  0.0079
 6761WAT     H120685   0.710   0.461   4.213  0.3280  0.9505  0.2306
 6761WAT     H220686   0.669   0.464   4.067  0.3934 -1.9537  0.0996
 6762WAT      O20687   5.811   4.555   4.064 -0.1876  0.1371  0.2402
 6762WAT     H120688   5.752   4.529   4.134  0.0931  0.7555  0.7196
 6762WAT     H220689   5.882   4.490   4.067 -0.6388 -0.3752 -0.0821
 6763WAT      O20690   3.170   1.571   4.103  0.0482  0.1129  0.4281
 6763WAT     H120691   3.164   1.547   4.011 -3.1941  1.8606  0.0266
 6763WAT     H220692   3.136   1.496   4.151 -1.5991  0.4541 -0.1374
 6764WAT      O20693   0.705   3.641   5.334 -0.2045 -0.0855 -0.3403
 6764WAT     H120694   0.792   3.620   5.299  0.4025  0.9530  0.4802
 6764WAT     H220695   0.668   3.556   5.358  2.0644 -0.4355  2.6286
 6765WAT      O20696   5.617   2.239   1.280 -0.8119  0.0898 -0.1324
 6765WAT     H120697   5.617   2.307   1.348 -0.2958  0.5531 -0.5920
 6765WAT     H220698   5.690   2.182   1.304 -1.1442 -0.2136  0.1625
 6766WAT      O20699   0.081   1.210   2.285 -0.1856  0.4756  0.2079
 6766WAT     H120700   0.038   1.286   2.324  0.8343  0.5938  1.1415
 6766WAT     H220701   0.116   1.161   2.359  1.4507  0.4995 -0.4924
 6767WAT      O20702   5.336   4.351   1.118  0.5966 -0.4337 -0.3499
 6767WAT     H120703   5.291   4.280   1.164  2.3584 -0.4612  1.4622
 6767WAT     H220704   5.429   4.334   1.132  1.1891  0.3881 -2.7663
 6768WAT      O20705   1.296   1.660   4.932 -0.4980 -0.0452 -0.6141
 6768WAT     H120706   1.370   1.616   4.973 -1.0840 -1.4607 -0.9904
 6768WAT     H220707   1.241   1.688   5.006 -1.0200 -1.6293 -0.3603
 6769WAT      O20708   4.336   2.645   4.174  0.5201 -0.6367  0.2521
 6769WAT     H120709   4.256   2.695   4.189  0.8970 -0.4689  1.9922
 6769WAT     H220710   4.361   2.664   4.084  0.1205  1.5472  0.5505
 6770WAT      O20711   5.239   2.450   1.798 -0.0346 -0.0298 -0.1654
 6770WAT     H120712   5.209   2.359   1.787 -1.2359  0.2519  0.6066
 6770WAT     H220713   5.269   2.455   1.888  0.3087  0.2724 -0.2943
 6771WAT      O20714   2.907   3.360   5.991  0.1015  0.4281 -0.2704
 6771WAT     H120715   2.898   3.448   6.027  0.1728  0.4595 -0.3290
 6771WAT     H220716   2.874   3.303   6.060  2.5884  0.2797  0.9327
 6772WAT      O20717   1.771   0.721   1.448  0.0201 -0.5100  0.4593
 6772WAT     H120718   1.722   0.642   1.425 -0.4225 -0.1204  0.0658
 6772WAT     H220719   1.826   0.738   1.372  1.5555 -1.5295  1.2826
 6773WAT      O20720   5.433   3.993   0.647 -0.2856 -0.0338 -0.1000
 6773WAT     H120721   5.523   3.984   0.680 -0.5364  0.2728  0.6902
 6773WAT     H220722   5.379   3.957   0.717 -0.7698 -0.5259 -0.7151
 6774WAT      O20723   0.815   1.779   0.594  0.1054  0.5318 -0.3032
 6774WAT     H120724   0.728   1.788   0.632  0.1602  1.3724 -0.3691
 6774WAT     H220725   0.839   1.688   0.610 -0.6744  0.3677 -0.0517
 6775WAT      O20726   6.204   0.558   0.483 -0.8314  0.4129 -0.0508
 6775WAT     H120727   6.253   0.624   0.533  0.3134 -1.0282  0.8120
 6775WAT     H220728   6.158   0.508   0.550 -2.0130  0.5643 -0.7332
 6776WAT      O20729   2.141   1.935   2.923  0.0348  0.8585 -0.5949
 6776WAT     H120730   2.190   1.909   3.002  1.1730 -2.2618 -2.1524
 6776WAT     H220731   2.052   1.950   2.955  0.0320 -2.0550  1.1485
 6777WAT      O20732   6.500   6.787   4.732  0.0279 -0.2748 -0.7349
 6777WAT     H120733   6.427   6.737   4.769 -1.6468  2.0711 -0.6052
 6777WAT     H220734   6.564   6.792   4.803 -0.0138 -1.6956 -0.5729
 6778WAT      O20735   0.964   6.405   1.380  0.0951  0.6288 -0.2581
 6778WAT     H120736   0.947   6.478   1.321 -0.3912  0.3402 -0.4855
 6778WAT     H220737   1.041   6.431   1.429  1.1193  0.4419 -1.7170
 6779WAT      O20738   7.461   5.396   0.711 -0.5847 -0.9394  0.2578
 6779WAT     H120739   7.425   5.330   0.769 -1.5676  0.1808  0.9782
 6779WAT     H220740   7.532   5.437   0.761 -1.5185  0.1151  0.7603
 6780WAT      O20741   1.969   4.375   0.372  0.3416 -0.4021  0.0320
 6780WAT     H120742   1.914   4.303   0.404 -0.6761  0.7074  0.8454
 6780WAT     H220743   1.964   4.441   0.441  0.6253  0.7814 -1.0561
 6781WAT      O20744   1.191   6.344   6.220 -0.2017 -0.2758 -1.1150
 6781WAT     H120745   1.135   6.271   6.194 -1.8211 -0.5940  2.6073
 6781WAT     H220746   1.178   6.410   6.152 -1.2598 -2.1908 -2.8682
 6782WAT      O20747   2.867   2.333   6.021 -0.2428 -0.7053  0.4079
 6782WAT     H120748   2.841   2.336   6.113  2.2532 -1.0954  1.2164
 6782WAT     H220749   2.788   2.308   5.974 -1.6099 -0.4172  2.4289
 6783WAT      O20750   1.181   0.999   5.324 -0.5581  0.4353  0.1169
 6783WAT     H120751   1.116   1.042   5.380 -1.1136 -1.3439  0.9258
 6783WAT     H220752   1.128   0.951   5.260 -0.0264 -0.5350  0.4023
 6784WAT      O20753   6.216   5.795   1.894  0.6687 -0.2379  0.2866
 6784WAT     H120754   6.198   5.743   1.973  0.3299  0.2508  0.5401
 6784WAT     H220755   6.231   5.884   1.927  0.4383 -0.0128 -0.2035
 6785WAT      O20756   5.676   6.493   1.948  0.0276 -0.1452  0.0818
 6785WAT     H120757   5.652   6.417   1.895 -1.3912 -0.1295  0.6408
 6785WAT     H220758   5.731   6.458   2.018 -0.9137 -0.7442  0.5472
 6786WAT      O20759   5.354   3.328   5.561  0.1904 -0.5610  0.4334
 6786WAT     H120760   5.272   3.378   5.563 -0.0131 -0.9042  0.8820
 6786WAT     H220761   5.357   3.291   5.473  0.3683  0.2688  0.0753
 6787WAT      O20762   2.232   4.778   4.579 -0.5259 -0.4053  0.2529
 6787WAT     H120763   2.314   4.800   4.536 -1.4878 -0.0915 -1.5378
 6787WAT     H220764   2.239   4.817   4.666  0.3023  1.6546 -0.6774
 6788WAT      O20765   6.030   1.198   1.580 -0.2923 -0.0387 -0.2222
 6788WAT     H120766   6.007   1.122   1.527 -2.3069  0.4855 -0.1798
 6788WAT     H220767   6.011   1.170   1.670 -1.3358  0.6106 -0.2371
 6789WAT      O20768   7.621   4.595   1.354 -0.0778 -0.2846  0.2905
 6789WAT     H120769   7.701   4.562   1.395  0.7620 -0.1518 -1.1464
 6789WAT     H220770   7.576   4.517   1.323  0.5024 -0.2822 -0.6182
 6790WAT      O20771   3.176   4.192   4.712 -0.0693  0.3937 -0.0933
 6790WAT     H120772   3.089   4.206   4.676 -0.8018 -0.0134  1.4416
 6790WAT     H220773   3.162   4.135   4.788  1.6037 -0.1705 -0.1610
 6791WAT      O20774   3.484   4.966   2.978 -0.3846  0.1819  0.3485
 6791WAT     H120775   3.435   5.033   3.026 -1.0012 -0.5167  0.7047
 6791WAT     H220776   3.531   4.917   3.045  0.0373  0.2235  0.0913
 6792WAT      O20777   0.169   0.110   5.163  0.1909 -0.3937 -0.0251
 6792WAT     H120778   0.172   0.115   5.067  1.8475  1.1398  0.0407
 6792WAT     H220779   0.220   0.032   5.185  0.0358 -0.5962 -0.3745
 6793WAT      O20780   0.614   2.555   4.217 -0.1036  0.3161  0.0295
 6793WAT     H120781   0.609   2.475   4.165  0.3716 -0.0585  0.5565
 6793WAT     H220782   0.691   2.601   4.183  0.6269 -0.2660  0.8627
 6794WAT      O20783   6.139   0.096   5.278 -0.0856  0.1088 -0.1422
 6794WAT     H120784   6.164   0.036   5.208 -1.6247 -0.4747 -0.2328
 6794WAT     H220785   6.164   0.051   5.359  0.9815  0.4387 -0.2816
 6795WAT      O20786   5.997   3.831   1.052 -0.0024  0.2456  0.2685
 6795WAT     H120787   5.917   3.781   1.039  0.8023 -1.6891  2.1297
 6795WAT     H220788   6.026   3.853   0.963 -2.3453  0.6652 -0.4506
 6796WAT      O20789   1.856   4.782   0.501  0.5834  0.2087  0.7042
 6796WAT     H120790   1.893   4.741   0.579  0.1003 -0.4617  0.5963
 6796WAT     H220791   1.905   4.745   0.428  0.9539  0.7427  0.6794
 6797WAT      O20792   3.409   4.442   2.414 -0.5522  0.0671 -0.0142
 6797WAT     H120793   3.323   4.401   2.426 -1.8041  1.4545 -3.1774
 6797WAT     H220794   3.393   4.514   2.352  2.9049  0.3478 -0.7773
 6798WAT      O20795   5.260   0.510   1.466 -0.0836  0.1539  0.6394
 6798WAT     H120796   5.198   0.464   1.523  0.3635 -1.6847 -0.2747
 6798WAT     H220797   5.345   0.471   1.487 -0.0382 -1.3751 -1.9339
 6799WAT      O20798   3.398   0.868   2.223  0.7584  0.0071  1.1048
 6799WAT     H120799   3.446   0.802   2.273  2.0800  0.2105  0.1659
 6799WAT     H220800   3.464   0.906   2.165 -0.5998  0.1755 -0.3780
 6800WAT      O20801   3.606   2.244   4.317  0.1938  0.1025  0.1097
 6800WAT     H120802   3.515   2.272   4.328  0.5297  0.8201  1.2227
 6800WAT     H220803   3.613   2.165   4.371  0.5556  0.8024  1.1199
 6801WAT      O20804   1.514   1.303   2.370 -0.0540 -0.3502  0.0636
 6801WAT     H120805   1.502   1.246   2.445  0.4177 -1.1488 -0.4487
 6801WAT     H220806   1.543   1.386   2.407 -1.2915 -0.2559  0.8617
 6802WAT      O20807   7.135   4.283   2.792  0.4432 -0.1451  0.2150
 6802WAT     H120808   7.070   4.227   2.749  0.9488  1.1817 -2.5178
 6802WAT     H220809   7.218   4.236   2.781  0.5689  0.1760 -0.2013
 6803WAT      O20810   3.034   1.701   3.803 -0.2944 -0.0369  0.2023
 6803WAT     H120811   3.100   1.694   3.735 -0.1126 -0.2970  0.4012
 6803WAT     H220812   3.078   1.746   3.876 -0.2303 -0.5123  0.4616
 6804WAT      O20813   2.952   1.651   5.531 -0.3933 -0.0650 -0.2490
 6804WAT     H120814   2.902   1.571   5.545 -0.0405 -0.6746 -2.1068
 6804WAT     H220815   2.939   1.702   5.610 -2.4281 -0.9964  0.0874
 6805WAT      O20816   5.072   1.956   1.419 -0.5642 -0.0066  0.8292
 6805WAT     H120817   5.135   1.903   1.468  1.3416  1.1328 -0.2537
 6805WAT     H220818   5.075   2.042   1.461  1.4932  1.1494 -1.4303
 6806WAT      O20819   2.199   4.158   6.176  0.5765  0.3198 -0.2252
 6806WAT     H120820   2.276   4.200   6.215  1.1521 -0.5933 -0.3531
 6806WAT     H220821   2.223   4.143   6.085  1.1912 -2.1147  0.2863
 6807WAT      O20822   1.327   4.717   4.227  0.2212 -0.2438  0.1778
 6807WAT     H120823   1.269   4.786   4.259  1.4962  0.8321  0.2907
 6807WAT     H220824   1.317   4.646   4.290  1.2190  1.0781  1.9638
 6808WAT      O20825   0.062   1.866   6.206  0.3668 -0.2250  0.0511
 6808WAT     H120826   0.022   1.788   6.244  0.6052 -1.2473 -1.6854
 6808WAT     H220827   0.025   1.939   6.255  2.4957 -1.4830  3.9294
 6809WAT      O20828   1.155   5.384   4.266 -0.1040  0.1633 -0.3332
 6809WAT     H120829   1.166   5.476   4.245  1.2192 -0.0588 -0.6889
 6809WAT     H220830   1.241   5.356   4.298 -0.5846 -0.8585  0.1127
 6810WAT      O20831   0.692   1.703   2.974  0.0416 -0.3534 -0.0099
 6810WAT     H120832   0.679   1.736   3.063  0.7609 -0.0640 -0.0009
 6810WAT     H220833   0.784   1.676   2.973  0.1751  0.1063 -0.8149
 6811WAT      O20834   2.449   0.351   4.508 -0.1772 -0.3316  0.6749
 6811WAT     H120835   2.472   0.439   4.478 -1.5138 -0.3538 -0.4936
 6811WAT     H220836   2.491   0.343   4.594  1.0846  0.9323  0.2070
 6812WAT      O20837   6.136   6.257   2.712  0.1128  0.5256 -0.0267
 6812WAT     H120838   6.138   6.352   2.727  0.5904  0.7717 -1.4890
 6812WAT     H220839   6.182   6.220   2.788  1.3035  1.5962 -0.1903
 6813WAT      O20840   3.964   5.123   2.634  0.0192 -0.0616  0.6000
 6813WAT     H120841   4.039   5.151   2.582 -1.5985 -1.1560 -2.5457
 6813WAT     H220842   4.002   5.092   2.716  2.7068  1.8139  0.1995
 6814WAT      O20843   0.129   2.350   2.929  0.1348  0.2508 -0.3479
 6814WAT     H120844   0.198   2.285   2.940 -0.1698  0.1062  0.8614
 6814WAT     H220845   0.175   2.431   2.909  0.5748 -0.1185 -0.8545
 6815WAT      O20846   0.891   2.836   2.768  0.7097  0.1367  0.0109
 6815WAT     H120847   0.979   2.857   2.800  0.3099  1.4760  0.2930
 6815WAT     H220848   0.902   2.753   2.721  1.7089 -0.8646  1.8689
 6816WAT      O20849   2.133   0.399   2.738 -0.0730  0.3688  0.2431
 6816WAT     H120850   2.054   0.381   2.789  0.1764 -0.2486  0.4200
 6816WAT     H220851   2.205   0.375   2.796  0.2825  1.6757  0.3773
 6817WAT      O20852   5.124   0.016   3.663 -0.0714 -0.4047 -0.1913
 6817WAT     H120853   5.078  -0.036   3.729 -1.1663 -0.1663 -0.7570
 6817WAT     H220854   5.211  -0.024   3.659 -0.0177 -0.5169  1.2793
 6818WAT      O20855   5.880   6.851   3.865  0.0865  0.4289  0.8672
 6818WAT     H120856   5.801   6.846   3.920 -0.7159 -0.4949 -0.2992
 6818WAT     H220857   5.939   6.908   3.913 -1.7168  2.0603  1.2849
 6819WAT      O20858   5.603   7.125   6.123  0.2946  0.3143 -0.5156
 6819WAT     H120859   5.600   7.219   6.140 -2.0216  0.4374 -1.3281
 6819WAT     H220860   5.600   7.085   6.211 -0.4656  0.9871 -0.2278
 6820WAT      O20861   7.215   6.705   1.182 -0.8002 -0.1501  0.3260
 6820WAT     H120862   7.189   6.694   1.274 -1.4091  0.7864  0.2798
 6820WAT     H220863   7.310   6.699   1.183 -0.7648  0.3686  1.1065
 6821WAT      O20864   4.456   5.063   0.648 -0.2345 -0.3565 -0.2215
 6821WAT     H120865   4.416   5.021   0.724  2.1138 -0.6806  0.9467
 6821WAT     H220866   4.509   4.993   0.609 -0.7196  0.0561 -1.6563
 6822WAT      O20867   3.041   2.125   0.608 -0.2947 -0.2254  0.5184
 6822WAT     H120868   3.124   2.168   0.588 -0.7431  0.5304  0.2437
 6822WAT     H220869   3.042   2.113   0.703 -1.0069  2.2312  0.8981
 6823WAT      O20870   4.386   5.475   5.201 -0.3356 -0.3950 -0.2841
 6823WAT     H120871   4.316   5.529   5.164  0.2323  0.5162 -0.0614
 6823WAT     H220872   4.350   5.441   5.283 -1.3256 -1.8049 -1.2546
 6824WAT      O20873   1.325   7.167   5.902  0.3748 -0.5718  0.4304
 6824WAT     H120874   1.307   7.243   5.847 -0.1379 -0.0994  1.2502
 6824WAT     H220875   1.357   7.203   5.984 -1.2023 -1.1678  1.3435
 6825WAT      O20876   5.837   1.080   4.969 -0.6515  0.4526 -0.3032
 6825WAT     H120877   5.822   1.063   5.062  0.5788 -1.2758 -0.3757
 6825WAT     H220878   5.839   1.176   4.963 -1.6662  0.6112  1.2761
 6826WAT      O20879   5.439   5.825   5.887 -0.7646 -0.4097 -0.5568
 6826WAT     H120880   5.427   5.788   5.800  1.6237  0.4018 -1.3121
 6826WAT     H220881   5.358   5.873   5.905 -1.8168 -1.6794 -1.7362
 6827WAT      O20882   4.061   3.573   4.384 -0.7672 -0.5198  0.2724
 6827WAT     H120883   4.093   3.604   4.469 -2.8649  0.3010  0.8444
 6827WAT     H220884   4.109   3.626   4.320  0.6571 -0.9704  0.9371
 6828WAT      O20885   6.655   3.444   0.452 -0.3474  0.0377  0.0302
 6828WAT     H120886   6.624   3.526   0.490 -0.6113 -0.2225  0.3971
 6828WAT     H220887   6.697   3.398   0.525  0.7184  0.2841 -0.4080
 6829WAT      O20888   0.806   6.129   2.386 -0.1050  0.2611 -0.1245
 6829WAT     H120889   0.857   6.208   2.405 -1.1705  0.7664  0.7674
 6829WAT     H220890   0.808   6.079   2.467  1.3202 -1.1189 -0.9466
 6830WAT      O20891   3.735   0.589   5.620  0.1238 -0.6556  0.0489
 6830WAT     H120892   3.766   0.563   5.707 -1.2770 -0.8433  0.5245
 6830WAT     H220893   3.716   0.683   5.628 -0.0208 -0.6757 -0.0404
 6831WAT      O20894   6.427   4.627   3.996  0.5676  0.1835  0.3136
 6831WAT     H120895   6.443   4.550   4.050  0.1910 -1.7062 -2.1066
 6831WAT     H220896   6.511   4.674   3.997  1.3955 -1.2262  0.4023
 6832WAT      O20897   3.371   1.945   2.679  0.1872 -0.1783 -0.0069
 6832WAT     H120898   3.293   2.000   2.670 -0.1048 -0.3933  1.1229
 6832WAT     H220899   3.419   1.960   2.598 -1.8124 -1.3235 -1.4978
 6833WAT      O20900   3.639   4.419   3.537 -0.3022  0.0861  0.0769
 6833WAT     H120901   3.714   4.410   3.596  0.6268 -1.3377 -1.2801
 6833WAT     H220902   3.579   4.350   3.564 -1.3436  1.3916  1.3440
 6834WAT      O20903   4.404   6.811   2.149 -0.1637  0.5513  0.1697
 6834WAT     H120904   4.435   6.808   2.240 -0.2915 -1.3039  0.2042
 6834WAT     H220905   4.367   6.898   2.139 -0.0861  0.8248  1.8898
 6835WAT      O20906   2.140   6.368   3.270 -0.4077  0.2406 -0.7680
 6835WAT     H120907   2.066   6.334   3.321  1.2838 -0.1898  1.5800
 6835WAT     H220908   2.200   6.294   3.262 -0.3625  0.4594 -3.0384
 6836WAT      O20909   0.807   6.753   1.307 -0.1259  0.4151 -0.0045
 6836WAT     H120910   0.846   6.840   1.298  0.2888  0.1779 -0.5313
 6836WAT     H220911   0.833   6.724   1.395 -0.9655  1.1561  0.5061
 6837WAT      O20912   4.874   5.686   4.475 -0.2779  0.1561  0.5853
 6837WAT     H120913   4.819   5.638   4.537  0.3814  0.9835  1.8472
 6837WAT     H220914   4.835   5.773   4.471  0.1186  0.3287  0.4263
 6838WAT      O20915   4.707   0.822   3.385  0.4060  0.1051 -0.0407
 6838WAT     H120916   4.627   0.840   3.435 -1.0471 -3.5979 -0.7363
 6838WAT     H220917   4.763   0.772   3.445 -0.2067 -2.0100 -1.1280
 6839WAT      O20918   1.027   6.550   5.514 -0.5464  0.0813 -0.4852
 6839WAT     H120919   1.111   6.526   5.476 -0.2899  0.7232 -0.3449
 6839WAT     H220920   1.041   6.545   5.609 -1.2131 -1.6239 -0.4348
 6840WAT      O20921   6.213   3.394   6.039  0.4331 -0.2682 -0.1566
 6840WAT     H120922   6.165   3.345   5.971  1.5197 -1.5630 -0.0346
 6840WAT     H220923   6.295   3.419   5.997  0.3714  0.4498  0.1534
 6841WAT      O20924   2.270   1.878   1.535  1.1045 -0.6268 -0.9682
 6841WAT     H120925   2.318   1.868   1.617 -1.0990  1.3936  0.7009
 6841WAT     H220926   2.252   1.972   1.529 -2.9319 -1.2246 -1.1770
 6842WAT      O20927   7.517   1.869   5.980  0.7760 -0.4134 -0.2817
 6842WAT     H120928   7.479   1.789   6.016 -0.6315 -0.0966 -0.9711
 6842WAT     H220929   7.596   1.840   5.935  1.0361 -1.2066  0.6582
 6843WAT      O20930   3.596   1.795   4.427  0.4969 -0.4018 -0.0218
 6843WAT     H120931   3.597   1.860   4.498 -0.4757 -0.7026  0.2790
 6843WAT     H220932   3.685   1.798   4.391  0.5938  0.7854  0.2724
 6844WAT      O20933   0.543   3.031   3.411  0.4456  0.3663  0.3243
 6844WAT     H120934   0.559   2.982   3.491  1.8825  0.1699 -0.0622
 6844WAT     H220935   0.448   3.026   3.399  0.4179 -1.3796  0.8960
 6845WAT      O20936   4.022   6.529   2.499  0.3268 -0.1526  0.0845
 6845WAT     H120937   3.952   6.511   2.436  0.3071 -1.4582  0.4429
 6845WAT     H220938   4.087   6.461   2.483  0.7812  0.0945  0.8038
 6846WAT      O20939   6.297   7.068   5.726 -0.6130 -0.2521 -0.3791
 6846WAT     H120940   6.331   7.061   5.815 -1.4661 -0.7409 -0.0725
 6846WAT     H220941   6.240   7.145   5.727  2.6384  2.4276 -1.6703
 6847WAT      O20942   5.784   0.939   3.443  0.0625 -0.4576  0.1379
 6847WAT     H120943   5.856   1.002   3.448  0.0326 -0.3863 -0.2386
 6847WAT     H220944   5.797   0.880   3.516 -0.5998  0.7241  1.2703
 6848WAT      O20945   0.664   6.596   5.004 -0.2878 -0.0905  0.9269
 6848WAT     H120946   0.611   6.530   4.959 -0.1284  1.5463 -1.8700
 6848WAT     H220947   0.601   6.642   5.060 -1.6657  0.9428 -1.3222
 6849WAT      O20948   0.264   4.296   1.708 -0.2285  0.5611 -0.2595
 6849WAT     H120949   0.226   4.237   1.773  0.1072 -0.5471 -1.0361
 6849WAT     H220950   0.353   4.313   1.740 -0.4788  1.0325  0.2019
 6850WAT      O20951   0.315   0.971   2.943 -0.6470 -0.1252  0.2654
 6850WAT     H120952   0.408   0.960   2.961 -0.3538 -0.0202 -1.1105
 6850WAT     H220953   0.281   1.019   3.020  0.6129  0.6501  0.3613
 6851WAT      O20954   5.361   4.640   0.680 -0.1558 -0.4344 -0.2885
 6851WAT     H120955   5.356   4.553   0.719  1.1802 -1.0496 -1.4116
 6851WAT     H220956   5.358   4.625   0.586  1.1142  0.6257 -0.5355
 6852WAT      O20957   2.418   0.361   5.715  0.0702 -0.5127  0.1244
 6852WAT     H120958   2.481   0.358   5.787 -0.9353 -1.6382  1.0045
 6852WAT     H220959   2.365   0.438   5.733  0.9473  0.2383 -0.4261
 6853WAT      O20960   2.638   6.982   3.437 -0.5154 -0.7597  0.2834
 6853WAT     H120961   2.641   7.068   3.395 -1.5341  0.1116  1.8705
 6853WAT     H220962   2.726   6.947   3.426 -0.6030 -0.3830 -2.0746
 6854WAT      O20963   2.126   6.645   5.534  0.6845  0.3341  0.1248
 6854WAT     H120964   2.124   6.723   5.590 -2.6803 -1.4787  2.9024
 6854WAT     H220965   2.184   6.585   5.580  1.3246  0.3149 -0.6962
 6855WAT      O20966   7.452   5.028   3.159  0.7187  0.7514  0.4303
 6855WAT     H120967   7.441   4.938   3.189  2.1564  0.6624  0.7773
 6855WAT     H220968   7.468   5.078   3.240  2.1606  0.9160  0.0803
 6856WAT      O20969   0.722   5.707   3.891  0.6876 -1.1794 -0.5960
 6856WAT     H120970   0.641   5.687   3.938  0.8450  0.9475  0.7447
 6856WAT     H220971   0.790   5.664   3.943  0.6456 -0.7643 -0.1888
 6857WAT      O20972   6.843   4.467   0.905 -0.3567 -0.6571  0.3308
 6857WAT     H120973   6.865   4.397   0.966 -0.8874 -0.8620  0.2970
 6857WAT     H220974   6.926   4.491   0.864 -0.0692 -0.8220  0.8110
 6858WAT      O20975   1.360   5.854   4.526  0.2764 -0.6592 -0.2814
 6858WAT     H120976   1.374   5.884   4.616  0.2178  0.5482 -0.6585
 6858WAT     H220977   1.359   5.758   4.533 -0.1183 -0.5853  1.0576
 6859WAT      O20978   0.246   3.719   0.681 -0.1604 -0.2282 -0.4878
 6859WAT     H120979   0.332   3.760   0.694 -0.0845 -0.0621 -1.4540
 6859WAT     H220980   0.213   3.758   0.600 -0.3898 -1.5692 -1.0591
 6860WAT      O20981   0.225   1.854   2.256 -0.3280 -0.6017 -0.3504
 6860WAT     H120982   0.135   1.824   2.247 -0.3723 -0.8076  0.6608
 6860WAT     H220983   0.256   1.865   2.166 -0.9035 -1.9046 -0.7319
 6861WAT      O20984   1.561   3.643   0.701  0.0480 -0.0069 -0.1723
 6861WAT     H120985   1.510   3.662   0.623 -1.2040 -0.9246  0.3912
 6861WAT     H220986   1.651   3.634   0.670  0.2248  3.1913 -0.9907
 6862WAT      O20987   3.154   2.239   2.194  0.4437  0.0925  0.2813
 6862WAT     H120988   3.208   2.262   2.118 -1.0366  0.6104 -0.6650
 6862WAT     H220989   3.106   2.161   2.166 -2.5102  2.0609 -0.6568
 6863WAT      O20990   0.123   2.194   1.046 -0.5523  0.2836 -0.8141
 6863WAT     H120991   0.156   2.283   1.036 -1.9894  1.0320  0.5272
 6863WAT     H220992   0.058   2.185   0.977 -0.2314  0.1769 -1.1051
 6864WAT      O20993   0.344   1.461   3.575  0.1323  0.5435 -0.8841
 6864WAT     H120994   0.374   1.549   3.598  0.4753  0.4872 -1.1102
 6864WAT     H220995   0.353   1.410   3.656 -1.2483  1.0118 -0.4007
 6865WAT      O20996   1.119   1.710   4.693 -0.4655 -0.0564  0.3430
 6865WAT     H120997   1.147   1.753   4.774  0.0550  0.5598 -0.1499
 6865WAT     H220998   1.078   1.629   4.722 -1.7505  0.9030  1.3211
 6866WAT      O20999   4.214   5.976   4.392  0.1104 -0.0424  0.2807
 6866WAT     H121000   4.203   6.011   4.480  2.1057 -0.3588  0.7139
 6866WAT     H221001   4.297   5.928   4.396 -0.8516 -1.9932 -1.1658
 6867WAT      O21002   6.240   5.767   0.123 -0.2640  0.2599  0.3001
 6867WAT     H121003   6.228   5.852   0.081 -0.5040  0.9378  1.6896
 6867WAT     H221004   6.333   5.746   0.109  0.4463  1.9430  2.0184
 6868WAT      O21005   4.262   3.209   6.012 -0.1861 -0.6136 -0.5503
 6868WAT     H121006   4.195   3.154   6.052  0.3056 -1.1591 -0.4808
 6868WAT     H221007   4.345   3.165   6.030  0.2703  0.4037 -0.0507
 6869WAT      O21008   2.000   0.865   2.780 -0.5293 -0.2029 -0.2106
 6869WAT     H121009   1.941   0.806   2.827  2.1848 -2.7099  0.3190
 6869WAT     H221010   2.044   0.810   2.715  1.7525  1.3113 -0.0908
 6870WAT      O21011   5.340   5.301   1.774 -0.1442  0.1307  0.3768
 6870WAT     H121012   5.326   5.290   1.869  2.0913 -0.3353  0.7071
 6870WAT     H221013   5.412   5.363   1.767 -2.0322  2.3245 -1.1622
 6871WAT      O21014   1.626   5.605   5.160  0.7159  0.0610 -0.0433
 6871WAT     H121015   1.620   5.527   5.216 -0.0079  1.0202  1.2463
 6871WAT     H221016   1.674   5.668   5.212 -2.1531  1.8744  0.6153
 6872WAT      O21017   3.353   1.163   0.358  0.2059  0.4337 -0.5399
 6872WAT     H121018   3.397   1.094   0.308  1.5326  0.7549  0.1264
 6872WAT     H221019   3.357   1.240   0.300 -1.7005 -0.1090 -1.4823
 6873WAT      O21020   0.229   4.914   4.065 -0.9933 -0.8088 -0.4942
 6873WAT     H121021   0.277   4.964   4.130 -0.4685 -0.8557 -0.8365
 6873WAT     H221022   0.286   4.839   4.046 -2.1727 -2.0792  0.7172
 6874WAT      O21023   0.268   2.997   4.257  0.2268 -0.1323  0.3026
 6874WAT     H121024   0.335   3.061   4.233  0.9812 -1.6986 -2.1815
 6874WAT     H221025   0.185   3.041   4.236  0.6595  0.5374 -0.0530
 6875WAT      O21026   1.226   1.301   5.299 -0.6234  0.3968 -0.4560
 6875WAT     H121027   1.178   1.327   5.220 -0.9190 -0.8095 -0.6887
 6875WAT     H221028   1.202   1.210   5.313  0.0853  0.3477  0.5564
 6876WAT      O21029   6.212   0.740   0.103  0.2925  0.1612  0.1629
 6876WAT     H121030   6.272   0.763   0.033  0.3615  2.0939  0.8165
 6876WAT     H221031   6.219   0.811   0.166 -2.3527  0.2448  0.4778
 6877WAT      O21032   2.104   0.824   5.550 -0.3348 -0.2811  0.4257
 6877WAT     H121033   2.099   0.862   5.462  0.1469 -0.8949  0.1258
 6877WAT     H221034   2.166   0.879   5.597 -1.1680  0.5053  0.6207
 6878WAT      O21035   0.485   5.579   6.226  0.8142  0.1918  0.1084
 6878WAT     H121036   0.456   5.670   6.231 -2.4772 -0.7607  3.1169
 6878WAT     H221037   0.562   5.575   6.284 -0.2336  0.7888  1.6204
 6879WAT      O21038   6.712   3.727   4.891  0.2837  0.1909  0.5162
 6879WAT     H121039   6.765   3.806   4.881 -0.3895  0.6409  0.4150
 6879WAT     H221040   6.645   3.735   4.824  0.5143 -0.7277  0.1639
 6880WAT      O21041   0.315   6.032   2.501 -0.3541  0.7587 -0.0089
 6880WAT     H121042   0.405   6.021   2.532 -0.1790  0.5565 -0.5723
 6880WAT     H221043   0.261   6.007   2.576  0.0520 -1.1268 -0.2880
 6881WAT      O21044   3.611   6.095   5.409  0.4895 -0.5254 -0.0682
 6881WAT     H121045   3.618   6.102   5.314  0.0292  0.5651 -0.0286
 6881WAT     H221046   3.595   6.002   5.425  0.3435 -0.6818 -1.0678
 6882WAT      O21047   3.120   6.517   1.668 -0.1415  0.5719 -0.3311
 6882WAT     H121048   3.161   6.443   1.623  0.6555  2.3983 -2.8171
 6882WAT     H221049   3.028   6.512   1.643 -0.1973  0.1548 -0.0592
 6883WAT      O21050   6.399   5.492   1.595 -0.6949 -0.1959 -0.1620
 6883WAT     H121051   6.369   5.475   1.506 -2.9344 -1.2741  0.7059
 6883WAT     H221052   6.414   5.406   1.633  1.9029  0.2879  0.0461
 6884WAT      O21053   0.380   5.593   1.582 -0.3005  0.3198 -0.6033
 6884WAT     H121054   0.316   5.558   1.644  0.9890 -2.0097 -0.4960
 6884WAT     H221055   0.413   5.673   1.624 -1.2725  0.1731  0.4999
 6885WAT      O21056   0.139   2.235   4.470 -0.2630  0.0707  0.2917
 6885WAT     H121057   0.233   2.226   4.454 -0.6660 -0.6113 -2.1901
 6885WAT     H221058   0.131   2.303   4.536  1.9780 -0.0770  0.7664
 6886WAT      O21059   6.226   1.599   2.267 -0.0291  0.2640  0.2174
 6886WAT     H121060   6.239   1.576   2.174 -0.2124  2.0399 -0.2915
 6886WAT     H221061   6.302   1.653   2.288 -0.7783  1.1981  0.6074
 6887WAT      O21062   4.154   2.443   5.743 -0.1760 -0.0208 -0.0198
 6887WAT     H121063   4.116   2.367   5.787  1.3141 -1.0488 -0.4288
 6887WAT     H221064   4.146   2.424   5.650  3.7729 -1.7075 -0.2040
 6888WAT      O21065   2.208   1.062   0.990 -0.2775 -0.1818  0.1072
 6888WAT     H121066   2.284   1.120   0.991 -0.4511  0.0304  0.9067
 6888WAT     H221067   2.133   1.121   0.984 -0.3851 -0.4030 -1.1352
 6889WAT      O21068   5.896   6.082   5.566  0.0757 -0.3577  0.2378
 6889WAT     H121069   5.990   6.066   5.554  0.2597  0.6807  0.1963
 6889WAT     H221070   5.891   6.131   5.648 -0.1706  1.7801 -0.9746
 6890WAT      O21071   4.904   1.651   1.181  0.2645  0.0279 -0.4008
 6890WAT     H121072   4.936   1.727   1.133 -0.4575 -0.0957 -1.1111
 6890WAT     H221073   4.983   1.605   1.210  0.7375 -0.2760 -2.0924
 6891WAT      O21074   6.794   0.591   5.939 -0.2085 -0.0856  0.4316
 6891WAT     H121075   6.748   0.526   5.992 -2.8489  0.5872 -0.8547
 6891WAT     H221076   6.818   0.660   6.001  0.8863 -1.3563  1.4675
 6892WAT      O21077   2.627   2.532   2.548 -0.0945 -0.1077  0.5609
 6892WAT     H121078   2.534   2.554   2.555  0.1554  1.1567  0.1180
 6892WAT     H221079   2.630   2.437   2.560 -1.6661 -0.4675 -1.4280
 6893WAT      O21080   2.260   7.144   1.408 -0.1333 -0.2839  0.4764
 6893WAT     H121081   2.242   7.058   1.370  1.0421 -0.5576  0.5218
 6893WAT     H221082   2.351   7.163   1.385 -0.1637  0.6465  1.0495
 6894WAT      O21083   5.781   3.679   1.895 -0.1174  0.7074  0.2083
 6894WAT     H121084   5.849   3.733   1.854  0.3242  0.0625  0.0775
 6894WAT     H221085   5.788   3.699   1.988  0.8060  0.0398  0.2897
 6895WAT      O21086   1.009   5.073   0.258 -0.0775  0.0132  0.7215
 6895WAT     H121087   1.019   4.986   0.295  2.0372  0.1463  0.5771
 6895WAT     H221088   0.943   5.116   0.314 -0.9858 -1.5624  0.9165
 6896WAT      O21089   6.807   7.037   1.608 -0.3699  0.0193 -0.0020
 6896WAT     H121090   6.746   7.011   1.540 -2.3467 -0.2693  1.7634
 6896WAT     H221091   6.790   7.130   1.621  1.2644  0.5062 -1.0616
 6897WAT      O21092   1.671   6.909   3.232 -0.1966  0.3477 -0.1327
 6897WAT     H121093   1.644   6.961   3.307  0.4003 -0.0427  0.3532
 6897WAT     H221094   1.765   6.921   3.226 -0.3942  1.5534 -1.7234
 6898WAT      O21095   0.720   3.616   4.806  0.7678  0.0326  0.2447
 6898WAT     H121096   0.645   3.626   4.864  1.3883  2.2944  0.7824
 6898WAT     H221097   0.682   3.611   4.719 -0.0424  2.0669  0.4195
 6899WAT      O21098   7.437   2.136   2.229  0.3125  0.2992 -0.2132
 6899WAT     H121099   7.343   2.153   2.228  0.7432  3.5834 -2.8476
 6899WAT     H221100   7.449   2.070   2.297 -3.7082  0.6890  1.1163
 6900WAT      O21101   4.504   3.268   3.655 -0.4957  0.1332  0.5509
 6900WAT     H121102   4.572   3.283   3.720 -0.7381  0.1536  0.8011
 6900WAT     H221103   4.545   3.293   3.572  0.0531 -0.5725  0.5975
 6901WAT      O21104   6.325   1.068   1.205  0.4359  0.1565 -0.0748
 6901WAT     H121105   6.343   0.974   1.205 -0.6027 -0.0860 -1.6008
 6901WAT     H221106   6.301   1.088   1.296  0.1082 -1.1693  0.1518
 6902WAT      O21107   3.871   1.195   5.133 -0.6533 -0.2369 -0.4157
 6902WAT     H121108   3.898   1.135   5.202 -0.0682  1.3019  0.7522
 6902WAT     H221109   3.823   1.264   5.179 -0.7442  0.5329 -1.6213
 6903WAT      O21110   2.398   0.030   2.741 -0.5207  0.5505  0.5025
 6903WAT     H121111   2.464   0.051   2.806 -0.0233 -0.8911  0.5101
 6903WAT     H221112   2.438   0.052   2.657  0.5603 -1.5546  0.4018
 6904WAT      O21113   2.633   1.011   4.744 -0.5759  0.3714 -0.0000
 6904WAT     H121114   2.670   1.098   4.733  1.2131 -0.4523 -0.9375
 6904WAT     H221115   2.689   0.968   4.809  0.0180 -0.8260 -1.2584
 6905WAT      O21116   0.955   3.485   3.416 -0.4032  0.8321 -0.0922
 6905WAT     H121117   0.942   3.395   3.387 -0.5629  0.7702  0.1742
 6905WAT     H221118   0.959   3.480   3.511 -3.0177  1.4158  0.1102
 6906WAT      O21119   6.732   2.789   2.978 -0.1408  0.1110 -0.2197
 6906WAT     H121120   6.746   2.694   2.983 -1.6902 -0.0895  1.3084
 6906WAT     H221121   6.793   2.819   2.911  0.5668 -1.9288 -0.5523
 6907WAT      O21122   4.801   6.173   3.199  0.0435 -0.2006  0.0067
 6907WAT     H121123   4.745   6.193   3.273  0.0640  1.0146 -0.2871
 6907WAT     H221124   4.748   6.194   3.122  0.3241 -0.6098 -0.3033
 6908WAT      O21125   2.971   6.330   0.141 -0.2919 -0.4246 -0.2378
 6908WAT     H121126   2.892   6.281   0.164 -0.5128  0.1959  0.3186
 6908WAT     H221127   2.954   6.420   0.168  0.5890 -0.2696 -0.1463
 6909WAT      O21128   7.199   5.175   1.854 -0.1697  0.7459 -0.0105
 6909WAT     H121129   7.215   5.105   1.790 -0.1977 -0.6222  1.4047
 6909WAT     H221130   7.237   5.142   1.935  0.1513  2.5771  0.6256
 6910WAT      O21131   0.595   0.908   5.662  0.3165  0.0746 -0.2085
 6910WAT     H121132   0.516   0.947   5.624  1.1333 -0.9732 -3.1947
 6910WAT     H221133   0.566   0.876   5.748 -1.8442  1.8709 -0.1670
 6911WAT      O21134   6.880   3.163   4.731  0.2628 -0.0307  0.0148
 6911WAT     H121135   6.872   3.162   4.826 -0.4110  0.6117 -0.0243
 6911WAT     H221136   6.793   3.136   4.699  0.5881 -0.5872 -0.4195
 6912WAT      O21137   4.909   5.321   0.106 -0.2769  0.0382 -0.4421
 6912WAT     H121138   4.903   5.299   0.199 -2.1222  0.7150 -0.3572
 6912WAT     H221139   4.968   5.255   0.069 -2.0162 -2.2485  0.6113
 6913WAT      O21140   1.168   1.629   4.199 -0.0191 -0.0620 -0.7158
 6913WAT     H121141   1.193   1.719   4.180 -1.8597  0.7009  0.2344
 6913WAT     H221142   1.209   1.609   4.283  1.4083 -0.5793 -1.5065
 6914WAT      O21143   3.777   3.518   5.897 -0.2120  0.0067 -0.4796
 6914WAT     H121144   3.815   3.450   5.952  0.7522  1.8790  1.2603
 6914WAT     H221145   3.717   3.565   5.954 -2.7016 -0.7403 -2.2800
 6915WAT      O21146   1.790   6.360   2.707  0.2347 -0.5744  0.0110
 6915WAT     H121147   1.872   6.399   2.739 -0.3033 -0.1766  0.9540
 6915WAT     H221148   1.732   6.361   2.783 -0.4195 -1.5065 -0.4543
 6916WAT      O21149   4.040   5.143   5.513 -0.5377 -0.2120 -0.4671
 6916WAT     H121150   4.111   5.122   5.453  0.9813  0.0237  1.1547
 6916WAT     H221151   3.986   5.206   5.466  1.4943  1.1892 -1.0218
 6917WAT      O21152   6.947   6.877   0.956 -0.0530 -0.4713 -0.0234
 6917WAT     H121153   7.016   6.944   0.955 -1.7783  1.3841 -1.1535
 6917WAT     H221154   6.942   6.850   1.048  1.2666  0.3231  0.3193
 6918WAT      O21155   0.775   4.269   3.684  0.7223  0.1958 -0.7297
 6918WAT     H121156   0.737   4.298   3.601  2.5545  1.5870 -1.1199
 6918WAT     H221157   0.776   4.347   3.739  1.1593 -0.2956 -0.0217
 6919WAT      O21158   4.991   2.578   1.661  0.0398  0.0945 -0.1019
 6919WAT     H121159   5.037   2.660   1.644  0.4006 -0.3447 -1.3991
 6919WAT     H221160   5.056   2.523   1.706 -0.4292  0.7383  1.4224
 6920WAT      O21161   1.204   2.092   4.576 -0.1843  0.4290 -0.2960
 6920WAT     H121162   1.109   2.102   4.568 -0.0399  0.7250 -1.9997
 6920WAT     H221163   1.220   2.095   4.670 -1.6772  2.1885 -0.0242
 6921WAT      O21164   1.473   1.922   3.895  0.3625  0.6117 -0.4614
 6921WAT     H121165   1.460   1.879   3.979 -2.0963  0.3211 -0.9099
 6921WAT     H221166   1.437   2.010   3.907  0.7510  0.8494 -0.9799
 6922WAT      O21167   0.235   0.007   3.387 -0.2426  0.4401  0.1844
 6922WAT     H121168   0.170   0.074   3.363  1.0538  1.5239 -0.4774
 6922WAT     H221169   0.268   0.035   3.472 -1.1528 -0.5222  0.8680
 6923WAT      O21170   6.820   2.254   3.997 -0.1061  0.0805  0.5715
 6923WAT     H121171   6.786   2.166   3.982 -1.0217  0.6536 -0.8850
 6923WAT     H221172   6.742   2.308   4.008  0.4392  0.7752  1.1299
 6924WAT      O21173   3.250   5.850   1.778 -0.0673 -0.0802  0.0052
 6924WAT     H121174   3.188   5.798   1.728 -0.8228  0.8022  0.0116
 6924WAT     H221175   3.267   5.797   1.856  0.4412 -1.0563 -0.7367
 6925WAT      O21176   6.487   4.221   5.587  0.1164  0.1713  0.1217
 6925WAT     H121177   6.401   4.264   5.590 -0.1188 -0.3418  1.3397
 6925WAT     H221178   6.517   4.221   5.678  0.5282 -1.3975  0.0150
 6926WAT      O21179   6.438   6.053   4.062  0.5747  0.0308  0.0528
 6926WAT     H121180   6.425   6.069   4.155  1.7065 -0.8289  0.3781
 6926WAT     H221181   6.354   6.076   4.022  0.0726  0.4049  1.2752
 6927WAT      O21182   4.272   4.655   3.738  0.0238 -0.0764 -0.3461
 6927WAT     H121183   4.250   4.727   3.797  0.7167 -0.0405 -0.1256
 6927WAT     H221184   4.365   4.666   3.720  0.6664 -2.0854  1.3370
 6928WAT      O21185   2.346   0.558   1.785 -0.4423 -0.1050  0.1263
 6928WAT     H121186   2.302   0.641   1.768 -1.1247 -0.5908 -0.5175
 6928WAT     H221187   2.284   0.491   1.757  0.4550 -0.8186 -0.2207
 6929WAT      O21188   4.320   0.918   1.259 -0.2317 -0.4684  0.3390
 6929WAT     H121189   4.409   0.942   1.285 -1.2162  1.7034  2.0440
 6929WAT     H221190   4.318   0.823   1.269  1.4483 -0.4161  1.9136
 6930WAT      O21191   4.577   4.942   2.693 -0.4230  0.0966 -0.2520
 6930WAT     H121192   4.540   4.920   2.607  1.8967 -1.3502 -0.9670
 6930WAT     H221193   4.611   5.031   2.682 -1.4066  0.4728 -0.3592
 6931WAT      O21194   4.316   3.230   0.460  0.1300  0.5121 -0.0334
 6931WAT     H121195   4.320   3.160   0.524  0.3883  0.2289 -0.3508
 6931WAT     H221196   4.312   3.311   0.512  0.5876  0.2998  0.3366
 6932WAT      O21197   4.928   7.187   5.577 -0.3319 -0.0137 -0.7198
 6932WAT     H121198   4.860   7.228   5.630  0.0843 -0.0899 -0.1062
 6932WAT     H221199   5.009   7.204   5.625  0.1331  0.4005 -1.6267
 6933WAT      O21200   4.252   0.566   2.992  0.1693  0.2311 -0.0274
 6933WAT     H121201   4.341   0.547   3.022  0.4136 -0.9218 -1.4035
 6933WAT     H221202   4.254   0.547   2.899 -2.0709 -1.9309  0.2760
 6934WAT      O21203   3.103   6.668   4.185  0.4082  0.0218 -0.1515
 6934WAT     H121204   3.112   6.612   4.262  1.0072 -0.5545 -0.6325
 6934WAT     H221205   3.190   6.670   4.146  0.3385  1.0849 -0.2890
 6935WAT      O21206   7.036   3.370   5.707 -0.4732  0.6633  0.3135
 6935WAT     H121207   7.067   3.402   5.622 -1.8670  0.8060 -0.1695
 6935WAT     H221208   6.940   3.379   5.703 -0.6705 -0.6597  1.3686
 6936WAT      O21209   4.581   2.550   4.666 -0.4593  0.1942  0.0228
 6936WAT     H121210   4.559   2.601   4.588  0.1439  0.7392  0.2067
 6936WAT     H221211   4.548   2.602   4.739  0.0544  0.2655  0.2042
 6937WAT      O21212   3.382   5.553   4.574  0.1382  0.2227  0.3381
 6937WAT     H121213   3.329   5.498   4.632  0.4777 -1.5265 -0.9183
 6937WAT     H221214   3.472   5.542   4.606  0.0367  1.3745  1.0708
 6938WAT      O21215   6.032   2.132   1.973  0.2953  0.4281  0.1581
 6938WAT     H121216   6.016   2.107   2.063  1.4360 -0.5303  0.1152
 6938WAT     H221217   6.122   2.103   1.955  1.1284  3.0166 -0.4318
 6939WAT      O21218   6.029   0.041   0.169 -0.2804  0.0115 -0.3175
 6939WAT     H121219   6.014  -0.051   0.148  0.1802 -0.2720  0.5306
 6939WAT     H221220   5.983   0.089   0.101  0.8998 -0.8526 -1.7942
 6940WAT      O21221   2.866   5.783   5.109  0.7001 -0.4285  0.2385
 6940WAT     H121222   2.819   5.762   5.190  0.8481 -1.3663  0.0835
 6940WAT     H221223   2.898   5.699   5.077  0.0001 -0.1747 -1.1934
 6941WAT      O21224   7.108   7.002   2.952  0.2090 -0.0472 -0.6182
 6941WAT     H121225   7.128   7.090   2.984  1.7440 -0.0100 -1.5405
 6941WAT     H221226   7.156   6.944   3.011  1.3202 -0.0935 -1.5378
 6942WAT      O21227   0.276   4.968   0.297 -0.1304 -0.1184 -0.4036
 6942WAT     H121228   0.182   4.976   0.313 -0.1218 -1.9125  0.8589
 6942WAT     H221229   0.311   4.928   0.377  1.5969 -0.1592 -1.1321
 6943WAT      O21230   7.028   3.975   2.422 -0.3253  0.3924  0.0748
 6943WAT     H121231   7.111   3.955   2.378  0.1197  0.3231  0.9145
 6943WAT     H221232   6.961   3.943   2.362  0.3155 -2.3603  0.6724
 6944WAT      O21233   0.296   2.126   3.735 -0.0273 -0.3406  0.0132
 6944WAT     H121234   0.207   2.105   3.707 -0.4863  0.1047  1.0971
 6944WAT     H221235   0.299   2.222   3.739  0.2376 -0.3730  0.7871
 6945WAT      O21236   6.607   2.854   4.172 -0.4585  0.4938 -0.1218
 6945WAT     H121237   6.648   2.916   4.232 -2.7774  0.5790  1.5145
 6945WAT     H221238   6.680   2.810   4.129  1.2717  2.3400  0.7664
 6946WAT      O21239   0.789   0.072   0.464 -0.0025  0.1589 -0.4692
 6946WAT     H121240   0.862   0.073   0.402  0.6183  1.4032  0.2602
 6946WAT     H221241   0.829   0.074   0.550 -0.8704  2.3080 -0.0530
 6947WAT      O21242   1.582   4.251   2.572 -0.0941  0.2411 -0.2740
 6947WAT     H121243   1.640   4.285   2.504  0.4937  1.6312  0.8704
 6947WAT     H221244   1.634   4.253   2.652 -0.9815 -0.7151  0.3642
 6948WAT      O21245   3.743   4.771   1.983  0.2655 -0.1338 -0.1192
 6948WAT     H121246   3.768   4.836   1.917  1.1121  0.8760  1.1487
 6948WAT     H221247   3.826   4.746   2.024 -0.3407 -0.1073  1.1427
 6949WAT      O21248   0.267   2.738   1.963 -0.0340  0.6286  0.0419
 6949WAT     H121249   0.315   2.781   2.033  0.4129  0.0721  0.0879
 6949WAT     H221250   0.247   2.651   1.998 -1.4230  0.9795  0.1742
 6950WAT      O21251   4.865   0.035   2.190 -0.3168  0.1000  0.2917
 6950WAT     H121252   4.833   0.065   2.276 -0.7902  1.4753 -0.3270
 6950WAT     H221253   4.915   0.110   2.157  1.9158 -1.2884  0.3687
 6951WAT      O21254   6.953   5.113   1.201  0.1552  0.5697  0.0014
 6951WAT     H121255   6.864   5.082   1.213  0.8064 -1.6618 -0.5457
 6951WAT     H221256   6.968   5.173   1.274 -1.5216  0.3965  0.5198
 6952WAT      O21257   7.060   0.736   0.502 -0.2765 -0.0989  0.2142
 6952WAT     H121258   6.974   0.715   0.537 -0.9585  2.4301  0.2433
 6952WAT     H221259   7.091   0.655   0.463 -3.1910 -0.7775 -0.8752
 6953WAT      O21260   7.235   2.429   0.492  0.0357 -0.6029 -0.3551
 6953WAT     H121261   7.144   2.407   0.473 -0.6662  1.7249 -0.0797
 6953WAT     H221262   7.266   2.359   0.548 -2.7373  0.2071  2.4635
 6954WAT      O21263   1.301   4.740   3.353 -0.6009 -0.3412  0.2482
 6954WAT     H121264   1.371   4.750   3.418 -1.9362  0.3397  1.6520
 6954WAT     H221265   1.260   4.656   3.373  0.9927 -1.7006 -1.8357
 6955WAT      O21266   6.113   0.149   4.129  0.1326 -0.4487  0.2472
 6955WAT     H121267   6.122   0.141   4.034  1.8541  2.8606 -0.0226
 6955WAT     H221268   6.203   0.138   4.163 -0.1145  0.4534  1.2549
 6956WAT      O21269   5.324   4.938   4.389 -1.0869  0.2267  0.2001
 6956WAT     H121270   5.332   5.005   4.321 -0.5457 -0.7600 -0.7317
 6956WAT     H221271   5.395   4.957   4.450 -0.5220  0.1320 -0.4097
 6957WAT      O21272   7.550   3.262   3.973  0.0110  0.7974 -0.4398
 6957WAT     H121273   7.585   3.226   4.054 -0.5354 -1.5412 -1.1590
 6957WAT     H221274   7.627   3.281   3.920  0.3449  1.6493  0.3282
 6958WAT      O21275   2.524   4.259   5.005 -0.2460 -0.2729  0.5545
 6958WAT     H121276   2.533   4.223   4.917 -0.7464 -0.5718  0.6193
 6958WAT     H221277   2.444   4.219   5.039 -0.4955  0.4575  0.8464
 6959WAT      O21278   1.609   3.912   0.340 -0.2487 -0.0554  0.2406
 6959WAT     H121279   1.671   3.840   0.340  0.6332  0.6827 -0.5982
 6959WAT     H221280   1.540   3.884   0.279  0.3572  0.0214 -0.4970
 6960WAT      O21281   6.563   5.874   6.014  0.1768 -0.3254 -0.5407
 6960WAT     H121282   6.561   5.835   6.101 -0.0100 -0.1447 -0.4612
 6960WAT     H221283   6.495   5.828   5.965 -1.6360  1.3872  0.2129
 6961WAT      O21284   0.436   2.777   3.842  0.0824 -0.0426 -0.4816
 6961WAT     H121285   0.420   2.787   3.936  0.3993  0.4488 -0.4753
 6961WAT     H221286   0.527   2.747   3.837 -0.7202 -2.7943 -0.5081
 6962WAT      O21287   7.088   2.899   3.042 -0.1997  0.3152  0.0182
 6962WAT     H121288   7.109   2.992   3.034  0.1229  0.2337 -0.0663
 6962WAT     H221289   7.043   2.878   2.959  0.4794  0.1954 -0.3277
 6963WAT      O21290   1.260   4.684   1.553  0.0580  0.1838  0.0258
 6963WAT     H121291   1.349   4.668   1.587 -0.3260  0.7775  1.3784
 6963WAT     H221292   1.204   4.673   1.629 -0.8329  1.7985 -0.3722
 6964WAT      O21293   7.408   4.880   0.130  0.2118 -0.0427  0.0335
 6964WAT     H121294   7.475   4.837   0.076 -0.7026 -1.4634 -0.0186
 6964WAT     H221295   7.337   4.817   0.135 -0.0507  0.3481  2.3118
 6965WAT      O21296   0.988   3.728   3.690 -0.1856 -0.3414  0.2317
 6965WAT     H121297   0.925   3.769   3.631 -0.4833  0.1754  0.9066
 6965WAT     H221298   1.041   3.800   3.723  1.6927 -0.8644 -1.3497
 6966WAT      O21299   6.484   4.637   2.158  0.2972 -0.4482  0.2446
 6966WAT     H121300   6.457   4.603   2.244 -1.5997 -1.8171 -0.8345
 6966WAT     H221301   6.469   4.731   2.165 -0.7563 -0.6555  1.1138
 6967WAT      O21302   6.342   4.836   5.577  0.1730  0.3133 -0.4294
 6967WAT     H121303   6.259   4.835   5.625  0.3240  0.6189 -0.1567
 6967WAT     H221304   6.349   4.748   5.541  0.1416  0.0135  0.2705
 6968WAT      O21305   5.437   3.753   2.196  0.6793  0.3978 -0.8360
 6968WAT     H121306   5.481   3.838   2.198 -2.8046  2.6197  4.4060
 6968WAT     H221307   5.459   3.713   2.280 -4.8404  0.7492  1.2047
 6969WAT      O21308   1.076   5.408   2.983 -0.2734 -0.3864 -0.1055
 6969WAT     H121309   1.142   5.477   2.991  0.5804 -1.1027 -0.7792
 6969WAT     H221310   1.069   5.370   3.070  0.3224 -0.4076 -0.0641
 6970WAT      O21311   4.572   0.638   1.266 -0.4804  0.5108 -0.1133
 6970WAT     H121312   4.487   0.627   1.309  0.2261 -2.0079  0.8066
 6970WAT     H221313   4.636   0.612   1.331  0.8932  0.5111 -1.4144
 6971WAT      O21314   5.269   5.003   0.285 -0.0945 -0.5817  0.1825
 6971WAT     H121315   5.233   5.045   0.363 -0.3039 -0.2297 -0.1041
 6971WAT     H221316   5.356   4.974   0.312 -0.5742 -1.4338  0.8796
 6972WAT      O21317   6.242   5.377   5.493  0.4983  0.3534  0.7127
 6972WAT     H121318   6.283   5.364   5.407  2.2218  0.7260  1.4401
 6972WAT     H221319   6.234   5.289   5.529  0.4199  0.2564  0.4632
 6973WAT      O21320   3.153   3.563   6.024 -0.3714 -0.6263  0.4538
 6973WAT     H121321   3.200   3.548   5.942 -2.0973 -1.3419 -0.4584
 6973WAT     H221322   3.218   3.547   6.093  0.8392 -1.0045 -0.7458
 6974WAT      O21323   1.700   6.029   1.508 -0.0011  0.4931 -0.0081
 6974WAT     H121324   1.773   5.968   1.518 -1.2775 -0.9722  0.7991
 6974WAT     H221325   1.731   6.093   1.443  0.9572 -1.6923 -1.8354
 6975WAT      O21326   5.246   4.282   2.667 -0.1658  0.0244  0.4694
 6975WAT     H121327   5.194   4.301   2.745  1.8322 -1.2249  2.2194
 6975WAT     H221328   5.332   4.320   2.686  0.7077 -1.3428 -0.5707
 6976WAT      O21329   7.362   0.026   4.740  0.1197 -0.1233 -0.4261
 6976WAT     H121330   7.386   0.104   4.790 -2.7561  0.2391  0.5421
 6976WAT     H221331   7.383  -0.047   4.797 -0.3773  0.1382  0.1002
 6977WAT      O21332   2.552   3.620   2.865 -0.1915  0.1877 -0.7439
 6977WAT     H121333   2.644   3.602   2.845  0.4804  0.2225  1.9053
 6977WAT     H221334   2.503   3.561   2.808  1.6336 -2.4886  0.2451
 6978WAT      O21335   5.643   7.036   2.736  0.4166  0.2176  0.0533
 6978WAT     H121336   5.675   7.125   2.722  1.3244 -0.0963  0.0867
 6978WAT     H221337   5.680   7.010   2.820  1.3604 -0.7104 -0.6215
 6979WAT      O21338   5.765   3.159   0.890 -0.2578 -0.1964 -0.0924
 6979WAT     H121339   5.818   3.225   0.935  0.4338 -0.2709 -0.7861
 6979WAT     H221340   5.742   3.096   0.959  0.4766 -0.1109  0.2374
 6980WAT      O21341   3.931   5.793   4.590 -0.1742  0.1006  0.8401
 6980WAT     H121342   3.956   5.710   4.549 -0.3429  0.6150 -0.3266
 6980WAT     H221343   3.988   5.799   4.667  0.9346 -0.3532  0.0779
 6981WAT      O21344   5.346   1.396   3.665 -0.1123 -0.2142 -0.7049
 6981WAT     H121345   5.379   1.316   3.706 -2.5859 -1.5374 -1.0798
 6981WAT     H221346   5.283   1.431   3.728 -1.0570 -0.0958 -1.6832
 6982WAT      O21347   2.307   0.973   2.322  0.2912 -0.0016 -0.1278
 6982WAT     H121348   2.395   0.942   2.299  0.2175  0.7949 -1.6274
 6982WAT     H221349   2.262   0.895   2.353  1.8089 -0.2348  1.6925
 6983WAT      O21350   3.571   0.894   4.750 -0.0372  0.2193  0.5323
 6983WAT     H121351   3.596   0.804   4.773 -0.9628 -0.1928 -0.0113
 6983WAT     H221352   3.608   0.908   4.663  0.9381  0.7220  1.0177
 6984WAT      O21353   0.748   6.238   0.167 -0.3819  0.0710  0.1090
 6984WAT     H121354   0.714   6.309   0.113 -0.9575  0.7875  1.3751
 6984WAT     H221355   0.837   6.266   0.191 -1.2928  1.3633  2.2360
 6985WAT      O21356   2.267   1.734   0.152 -0.5765 -0.1470  0.0882
 6985WAT     H121357   2.324   1.670   0.193 -2.0608 -1.3926  0.3114
 6985WAT     H221358   2.302   1.745   0.064  0.3090 -0.4611  0.3926
 6986WAT      O21359   3.447   4.051   1.494 -0.5177 -0.0255  0.1311
 6986WAT     H121360   3.481   3.964   1.512  2.2656  1.1355  0.8992
 6986WAT     H221361   3.454   4.098   1.577 -1.5629  1.0813 -0.3725
 6987WAT      O21362   3.314   0.367   6.037 -0.1489  0.0895  0.3007
 6987WAT     H121363   3.370   0.334   5.967 -2.8363 -4.2435 -0.1825
 6987WAT     H221364   3.364   0.354   6.117  1.6570  1.9890 -0.4074
 6988WAT      O21365   1.724   0.342   5.191 -0.8989 -0.6210  0.0984
 6988WAT     H121366   1.663   0.295   5.247  0.6810 -0.2936  2.2494
 6988WAT     H221367   1.789   0.276   5.165 -0.4875 -0.3377  0.3911
 6989WAT      O21368   0.353   6.506   1.900 -0.0818  0.0231 -0.0986
 6989WAT     H121369   0.337   6.595   1.868 -1.1091 -0.1286 -0.0274
 6989WAT     H221370   0.408   6.519   1.978 -0.4949  0.6254  0.1029
 6990WAT      O21371   4.401   2.012   4.717 -0.1354 -0.2353 -0.5658
 6990WAT     H121372   4.491   2.039   4.699 -0.8883  1.8928 -1.3668
 6990WAT     H221373   4.383   2.047   4.804 -0.8072  1.1291 -1.2241
 6991WAT      O21374   2.085   1.351   5.910 -0.0692  0.1351  0.1305
 6991WAT     H121375   2.035   1.298   5.973 -0.9408 -0.8864 -1.3634
 6991WAT     H221376   2.139   1.407   5.965 -0.3964 -1.0842  1.8031
 6992WAT      O21377   0.413   2.347   2.983 -0.1985  0.8056  0.3207
 6992WAT     H121378   0.363   2.363   3.063 -1.6189  0.8124 -0.5374
 6992WAT     H221379   0.457   2.263   2.997 -0.1168  1.0012  1.2465
 6993WAT      O21380   2.784   6.560   0.699  0.4987  0.3776  0.2302
 6993WAT     H121381   2.707   6.614   0.682 -0.5669 -0.9687  0.6477
 6993WAT     H221382   2.839   6.615   0.756 -1.1464  0.5541  1.7159
 6994WAT      O21383   4.792   5.074   5.241 -0.0369 -0.4418  0.8646
 6994WAT     H121384   4.876   5.079   5.287  1.4676 -0.8722 -1.6039
 6994WAT     H221385   4.812   5.023   5.162 -2.2783  0.7180 -0.5415
 6995WAT      O21386   1.222   3.551   5.752 -0.2363  0.4634  0.0424
 6995WAT     H121387   1.190   3.638   5.774  1.9995  0.8817  2.0108
 6995WAT     H221388   1.259   3.518   5.834  2.0909 -0.9286 -1.4740
 6996WAT      O21389   7.178   3.139   5.731 -0.0892 -0.2862  0.2262
 6996WAT     H121390   7.186   3.125   5.825  2.3627  0.4302  0.2076
 6996WAT     H221391   7.122   3.215   5.722  1.1004  0.7545  1.2583
 6997WAT      O21392   1.094   4.580   0.519 -0.3748 -0.1389 -0.2416
 6997WAT     H121393   1.189   4.585   0.508 -0.1299 -2.3740  0.2897
 6997WAT     H221394   1.078   4.612   0.607 -0.1977  0.6955 -0.4996
 6998WAT      O21395   2.765   2.514   0.927  0.2884 -0.3763 -0.4764
 6998WAT     H121396   2.721   2.589   0.886 -1.5388 -1.2640 -0.2247
 6998WAT     H221397   2.738   2.439   0.876  1.5163 -0.9730 -0.2743
 6999WAT      O21398   5.820   2.559   2.445 -0.1191 -0.1591 -0.0638
 6999WAT     H121399   5.862   2.555   2.531  2.3903 -0.0324 -1.2034
 6999WAT     H221400   5.796   2.469   2.426  0.7231 -0.4242  0.1178
 7000WAT      O21401   7.094   2.520   3.312 -0.3315  0.2322 -0.1277
 7000WAT     H121402   7.067   2.465   3.238 -0.0234 -0.6549  0.4025
 7000WAT     H221403   7.123   2.602   3.272 -0.3448 -0.1640 -0.9741
 7001WAT      O21404   6.999   4.255   0.693 -0.6210  0.0775 -0.2626
 7001WAT     H121405   7.072   4.266   0.754 -0.2644 -0.7008 -0.5255
 7001WAT     H221406   7.041   4.252   0.607 -1.2960  3.3544 -0.8120
 7002WAT      O21407   0.093   0.939   2.635  0.2164  0.4884  0.1461
 7002WAT     H121408   0.105   0.877   2.707  1.5553  0.8029  0.2155
 7002WAT     H221409   0.018   0.992   2.661  0.1425  0.0295  0.8978
 7003WAT      O21410   7.556   4.930   4.926  0.4272 -0.4963 -0.4487
 7003WAT     H121411   7.576   4.862   4.862  2.1205  1.2031 -1.8558
 7003WAT     H221412   7.616   4.913   4.999  0.5265 -0.7704 -0.5940
 7004WAT      O21413   4.539   2.251   4.681 -0.0805 -0.0700 -0.2951
 7004WAT     H121414   4.542   2.346   4.671 -2.4956  0.1232  0.1573
 7004WAT     H221415   4.509   2.238   4.772  2.0172 -1.3343  0.2844
 7005WAT      O21416   7.185   0.148   6.222 -0.3102  0.2036 -0.1486
 7005WAT     H121417   7.108   0.195   6.190 -1.5199  0.1499  2.3824
 7005WAT     H221418   7.168   0.137   6.316  2.0320 -1.3211  0.1695
 7006WAT      O21419   2.476   3.202   4.869 -0.0127  0.4229 -0.2163
 7006WAT     H121420   2.468   3.258   4.947  1.4723 -0.9434  0.9932
 7006WAT     H221421   2.554   3.235   4.824 -1.1135  1.4843 -1.4060
 7007WAT      O21422   4.867   4.390   3.008 -0.1488  0.1828 -0.0836
 7007WAT     H121423   4.877   4.296   3.023  1.1376  0.2808 -0.2165
 7007WAT     H221424   4.923   4.408   2.932 -1.4351  0.8390 -0.9176
 7008WAT      O21425   0.809   7.055   5.509  0.4757  0.1047  0.0096
 7008WAT     H121426   0.762   7.018   5.584 -0.3164  1.8326  0.4021
 7008WAT     H221427   0.836   6.978   5.459 -2.3549 -1.0219  0.0058
 7009WAT      O21428   6.169   3.192   1.047  1.0786 -0.2455  0.4709
 7009WAT     H121429   6.264   3.202   1.047  1.0400  0.1579  0.5347
 7009WAT     H221430   6.154   3.102   1.073  1.4097  0.1129  1.9742
 7010WAT      O21431   2.932   7.210   0.605 -0.0076 -0.9703  0.0100
 7010WAT     H121432   2.960   7.129   0.647 -1.5811 -0.9799  1.1004
 7010WAT     H221433   2.900   7.265   0.676  0.4610  0.3966 -0.7802
 7011WAT      O21434   5.587   0.357   4.680 -0.1444 -0.0269  0.1685
 7011WAT     H121435   5.582   0.295   4.607  0.2045 -0.4852  0.5218
 7011WAT     H221436   5.681   0.360   4.702 -0.3130 -0.3283  0.9611
 7012WAT      O21437   5.026   0.725   6.039  0.0892  0.3064  0.0344
 7012WAT     H121438   4.974   0.741   6.118 -0.4739  3.0788 -0.7949
 7012WAT     H221439   4.963   0.733   5.967  0.6270 -2.0267 -0.7668
 7013WAT      O21440   1.570   0.667   3.557 -0.0682 -0.1200 -0.0931
 7013WAT     H121441   1.581   0.762   3.546  1.3675 -0.3413 -0.9088
 7013WAT     H221442   1.528   0.638   3.476 -1.3544 -0.0750  0.5429
 7014WAT      O21443   3.677   2.678   0.500 -0.2364  0.0843 -0.1179
 7014WAT     H121444   3.771   2.658   0.503 -0.2701  0.0268  0.9507
 7014WAT     H221445   3.672   2.769   0.526 -0.3991  0.4475 -1.3390
 7015WAT      O21446   3.100   5.393   3.103 -0.4052  0.0509 -0.1854
 7015WAT     H121447   3.160   5.402   3.029 -0.3439 -1.0969 -0.2876
 7015WAT     H221448   3.013   5.409   3.066 -0.3537 -0.3009 -0.4663
 7016WAT      O21449   4.403   4.756   4.920 -0.0778  0.4203 -0.2811
 7016WAT     H121450   4.330   4.782   4.977 -1.0432 -0.1067 -1.2299
 7016WAT     H221451   4.407   4.825   4.854 -0.4307 -0.0969 -0.8513
 7017WAT      O21452   0.047   5.846   4.653  0.9500 -0.5885 -0.0575
 7017WAT     H121453  -0.004   5.864   4.574  0.1194 -1.0421  0.3657
 7017WAT     H221454   0.130   5.893   4.639 -0.0210  1.1623 -0.2487
 7018WAT      O21455   7.267   3.970   3.422  0.1876 -0.2634  0.3355
 7018WAT     H121456   7.286   4.025   3.347 -1.3871  0.2477  0.2778
 7018WAT     H221457   7.337   3.904   3.422 -0.8360 -1.5106 -2.7628
 7019WAT      O21458   7.135   1.618   5.317 -0.2211  0.6603 -0.1067
 7019WAT     H121459   7.185   1.697   5.336 -1.0004  1.2027 -0.3060
 7019WAT     H221460   7.172   1.552   5.377  0.6927  1.0569 -0.2145
 7020WAT      O21461   1.931   6.310   0.521 -0.6130 -0.0225 -0.4561
 7020WAT     H121462   1.952   6.361   0.599 -0.1214 -1.5401  0.4575
 7020WAT     H221463   2.012   6.309   0.470 -0.3286 -0.6494 -0.0079
 7021WAT      O21464   4.702   5.131   1.745  0.1014  0.1512 -0.4195
 7021WAT     H121465   4.613   5.166   1.737  0.0977 -0.1788 -2.5170
 7021WAT     H221466   4.691   5.045   1.784 -0.6124 -0.2373 -1.4417
 7022WAT      O21467   6.035   3.081   3.735  0.0761  0.4124  0.0940
 7022WAT     H121468   6.113   3.027   3.719 -0.5438 -0.0181 -1.7700
 7022WAT     H221469   6.069   3.170   3.745  0.9259  0.0069  0.9978
 7023WAT      O21470   2.508   6.103   0.869 -0.2885  0.2640 -0.0770
 7023WAT     H121471   2.431   6.055   0.899 -0.0645 -1.2045 -1.6942
 7023WAT     H221472   2.551   6.133   0.949 -2.2898  0.7725  0.8745
 7024WAT      O21473   4.203   4.074   4.578  0.0176  0.3683  0.1169
 7024WAT     H121474   4.283   4.118   4.551  0.2398 -0.0609  0.0648
 7024WAT     H221475   4.152   4.141   4.624 -0.5661  1.2702 -1.7147
 7025WAT      O21476   4.340   3.744   5.845 -0.3728  0.0754  0.3630
 7025WAT     H121477   4.334   3.737   5.749  2.0294  0.2696  0.1166
 7025WAT     H221478   4.285   3.674   5.878  0.2725 -1.2528 -1.2307
 7026WAT      O21479   6.718   0.806   1.128 -0.2593 -0.0721 -0.0876
 7026WAT     H121480   6.743   0.844   1.212 -0.0160  0.6385 -0.4791
 7026WAT     H221481   6.764   0.722   1.126 -0.4335 -0.1957  0.5775
 7027WAT      O21482   5.917   6.029   4.397 -0.1101  0.5462 -0.2105
 7027WAT     H121483   5.844   5.967   4.396  0.3901 -0.1640  2.0272
 7027WAT     H221484   5.995   5.973   4.402  0.3500  1.2881  1.9894
 7028WAT      O21485   5.947   2.600   3.158 -0.5583  0.3264  0.3743
 7028WAT     H121486   5.915   2.637   3.240 -1.4524  1.5353 -0.4833
 7028WAT     H221487   6.024   2.651   3.136 -0.0505 -0.2972  0.6776
 7029WAT      O21488   5.456   6.142   5.172 -0.5095  0.2486  0.1735
 7029WAT     H121489   5.398   6.073   5.206 -0.1483 -0.4458 -0.5727
 7029WAT     H221490   5.543   6.115   5.200 -0.3425  0.2717 -0.3171
 7030WAT      O21491   0.177   4.686   1.784  0.0606 -0.1316 -0.3591
 7030WAT     H121492   0.134   4.629   1.849  0.7825  0.4977  0.7067
 7030WAT     H221493   0.187   4.631   1.707 -1.5102 -0.6727 -0.2066
 7031WAT      O21494   5.006   2.491   5.831 -0.4149  0.0852  0.2000
 7031WAT     H121495   4.940   2.451   5.888 -1.5745 -0.7970 -1.6619
 7031WAT     H221496   4.971   2.479   5.743  1.8995  0.2815 -0.7965
 7032WAT      O21497   5.987   0.758   2.806  0.1569  0.2489 -0.1448
 7032WAT     H121498   5.989   0.667   2.776  1.2373  0.7469 -1.7652
 7032WAT     H221499   5.937   0.756   2.888  1.1121 -1.9703  0.4628
 7033WAT      O21500   3.715   0.005   0.700  0.3449 -0.4428  0.1699
 7033WAT     H121501   3.680   0.067   0.764  0.0226 -0.6275  0.1777
 7033WAT     H221502   3.661   0.018   0.622 -0.4107 -1.4134  0.5037
 7034WAT      O21503   6.857   1.772   4.728  0.3730  0.1343  0.0592
 7034WAT     H121504   6.795   1.700   4.736  3.1263 -2.2808  2.2780
 7034WAT     H221505   6.858   1.812   4.815  1.9983 -0.0941  0.1867
 7035WAT      O21506   7.630   5.345   3.031  0.2125 -0.1216 -0.6272
 7035WAT     H121507   7.581   5.410   2.981 -1.1848 -0.2726  0.5019
 7035WAT     H221508   7.589   5.343   3.117  2.1546 -0.3235  0.3716
 7036WAT      O21509   5.326   4.999   2.281  0.3064  0.2305 -0.0707
 7036WAT     H121510   5.320   5.055   2.204 -1.1115 -0.5037 -0.5317
 7036WAT     H221511   5.279   4.919   2.256 -0.3927  0.0743  1.6418
 7037WAT      O21512   7.086   2.777   0.991  0.6700  0.3145  0.2092
 7037WAT     H121513   7.101   2.834   0.915  1.4247 -1.1168 -0.7697
 7037WAT     H221514   7.174   2.749   1.017  0.2978 -0.6217  0.4796
 7038WAT      O21515   0.166   2.919   0.192  0.0661 -0.1574  0.6971
 7038WAT     H121516   0.123   2.838   0.166 -1.9161  1.2763 -0.8494
 7038WAT     H221517   0.108   2.957   0.258 -0.3922  1.1572 -0.4156
 7039WAT      O21518   2.272   7.138   1.688  0.2262  0.7275 -0.1438
 7039WAT     H121519   2.184   7.123   1.721 -0.0008  1.5225 -0.3782
 7039WAT     H221520   2.259   7.168   1.598  0.6944  1.6007  0.0708
 7040WAT      O21521   1.930   2.090   6.100 -0.0178  0.1911  0.0345
 7040WAT     H121522   1.873   2.149   6.150 -0.5204  2.8231 -3.2779
 7040WAT     H221523   2.017   2.101   6.140 -0.7767  0.3626  1.7153
 7041WAT      O21524   3.402   1.616   4.363 -0.5816  0.0064  1.0935
 7041WAT     H121525   3.477   1.665   4.397 -1.4310  1.0783  1.5192
 7041WAT     H221526   3.361   1.578   4.441 -0.1577 -1.0649  0.8028
 7042WAT      O21527   1.309   2.705   2.643  0.2242  0.3608 -0.3888
 7042WAT     H121528   1.289   2.779   2.585  0.4180  0.4341 -0.3629
 7042WAT     H221529   1.267   2.727   2.726 -0.4609  0.0334 -0.6418
 7043WAT      O21530   6.501   4.765   3.016 -0.1091  0.0864  0.1492
 7043WAT     H121531   6.558   4.752   2.940  1.3050  1.5170  0.9160
 7043WAT     H221532   6.494   4.678   3.056 -0.4096 -0.5704 -1.2564
 7044WAT      O21533   6.211   3.987   4.376  0.2726  0.3318 -0.5256
 7044WAT     H121534   6.240   4.000   4.286 -0.9756  0.8619 -0.8838
 7044WAT     H221535   6.141   4.052   4.388 -0.3730 -0.5056  0.4318
 7045WAT      O21536   5.676   6.307   5.809  0.1062 -0.4463  0.1010
 7045WAT     H121537   5.731   6.385   5.814 -0.8543  0.1976  1.9594
 7045WAT     H221538   5.721   6.242   5.863  1.9878 -2.0301 -3.0810
 7046WAT      O21539   5.624   5.757   2.339  0.8868  0.0032  0.3675
 7046WAT     H121540   5.668   5.706   2.271 -1.4432 -0.3741 -0.9917
 7046WAT     H221541   5.674   5.739   2.419  0.6778 -3.8792 -0.1658
 7047WAT      O21542   4.638   2.059   3.104 -0.0793  0.1230  0.3644
 7047WAT     H121543   4.639   2.079   3.010 -0.3082 -0.3778  0.2531
 7047WAT     H221544   4.704   1.991   3.114 -0.3103 -0.0783  0.5079
 7048WAT      O21545   6.098   5.839   4.421  0.0599  0.3722  0.4837
 7048WAT     H121546   6.192   5.847   4.437  0.0563  0.9143  0.2475
 7048WAT     H221547   6.068   5.775   4.486  0.4922  0.6212  0.9298
 7049WAT      O21548   4.259   0.630   2.421  0.2081  0.0095  0.0513
 7049WAT     H121549   4.297   0.680   2.494 -0.0609  0.9482 -0.4296
 7049WAT     H221550   4.165   0.643   2.429  0.0332 -1.4885  0.6554
 7050WAT      O21551   6.390   3.278   1.369 -0.7419  0.0376 -0.6444
 7050WAT     H121552   6.393   3.352   1.309 -1.4845  0.4260 -0.2199
 7050WAT     H221553   6.448   3.212   1.330 -0.2059  0.7763 -1.1079
 7051WAT      O21554   7.302   2.436   3.462  0.0885 -0.1431 -0.2282
 7051WAT     H121555   7.221   2.467   3.423 -0.3955  1.8025  2.0813
 7051WAT     H221556   7.370   2.492   3.424  0.1911 -0.8123 -1.0718
 7052WAT      O21557   6.325   1.089   3.196 -0.1670 -0.6678  0.1175
 7052WAT     H121558   6.410   1.114   3.231 -0.2553 -0.1377 -0.0451
 7052WAT     H221559   6.268   1.082   3.272 -0.0601 -0.7068  0.1941
 7053WAT      O21560   1.561   5.547   0.849 -0.2498 -0.4475  0.5231
 7053WAT     H121561   1.615   5.535   0.928  2.2166 -0.1227 -1.0022
 7053WAT     H221562   1.538   5.640   0.849  0.1566 -0.3439  0.6288
 7054WAT      O21563   6.038   0.614   4.750 -0.2989  0.7959 -0.2181
 7054WAT     H121564   6.029   0.537   4.807 -1.0265  0.7884 -0.3416
 7054WAT     H221565   5.998   0.685   4.800 -1.8143  0.5982 -1.0999
 7055WAT      O21566   6.763   0.674   0.624  0.4888 -0.2406  0.3839
 7055WAT     H121567   6.780   0.716   0.709  0.8742 -2.8884  1.7135
 7055WAT     H221568   6.690   0.723   0.587  0.5438  1.2071  2.0698
 7056WAT      O21569   1.702   2.626   2.977  0.5343  0.3694 -0.7994
 7056WAT     H121570   1.659   2.609   3.060 -0.6095 -0.7926 -1.5889
 7056WAT     H221571   1.697   2.721   2.966  0.3714  0.4933  0.2822
 7057WAT      O21572   0.113   4.793   0.761  0.1863  0.0231 -0.1746
 7057WAT     H121573   0.100   4.772   0.854 -1.0574 -1.1170 -0.5767
 7057WAT     H221574   0.057   4.868   0.746 -1.2192 -1.0344 -0.4395
 7058WAT      O21575   2.947   2.034   1.083 -0.5063 -1.0047  0.4216
 7058WAT     H121576   3.005   1.981   1.137 -0.4503 -2.1637 -0.7283
 7058WAT     H221577   2.947   2.120   1.125  2.1521 -0.9092  0.3640
 7059WAT      O21578   2.610   4.967   0.965 -0.3748  0.3301 -0.1186
 7059WAT     H121579   2.601   4.986   1.058  0.3323 -0.4982  0.1349
 7059WAT     H221580   2.684   4.906   0.960 -2.7868 -2.7811 -0.8154
 7060WAT      O21581   2.218   4.820   5.139 -0.3441  0.1424 -0.4922
 7060WAT     H121582   2.211   4.767   5.218 -0.7760 -0.7997 -1.1493
 7060WAT     H221583   2.167   4.773   5.074  0.5768  0.5470 -1.5288
 7061WAT      O21584   0.627   3.944   6.020 -0.1621 -0.5662  0.2787
 7061WAT     H121585   0.713   3.982   6.039 -1.4697  3.3616 -0.7302
 7061WAT     H221586   0.586   3.933   6.106  1.2379 -2.5006  0.7722
 7062WAT      O21587   6.803   2.009   2.130  0.1379  0.0573  0.4121
 7062WAT     H121588   6.877   1.949   2.132 -1.4859 -2.0598  0.9132
 7062WAT     H221589   6.825   2.073   2.062  2.0168 -1.0263 -0.0442
 7063WAT      O21590   2.284   4.250   2.920 -0.1460  0.3686  0.3732
 7063WAT     H121591   2.194   4.227   2.899 -0.6767  1.5144  1.3018
 7063WAT     H221592   2.333   4.168   2.909 -1.6043 -0.7124  1.6012
 7064WAT      O21593   4.946   3.635   0.656 -0.0861  0.2487 -0.3137
 7064WAT     H121594   4.945   3.540   0.643  0.1887  0.4110 -1.6376
 7064WAT     H221595   4.983   3.647   0.743 -1.0078 -0.8899  0.2696
 7065WAT      O21596   6.250   6.965   4.659  0.3636 -0.0274 -0.2463
 7065WAT     H121597   6.342   6.941   4.653  0.5326  0.6385 -0.4509
 7065WAT     H221598   6.235   7.023   4.584 -0.6414 -1.4291 -1.1650
 7066WAT      O21599   2.234   6.479   3.974 -0.5262 -0.0978 -0.5236
 7066WAT     H121600   2.277   6.470   3.889 -0.9726  0.6198 -0.8352
 7066WAT     H221601   2.155   6.425   3.967 -0.3344 -0.3913 -0.4100
 7067WAT      O21602   7.147   6.996   1.142  0.2761  0.8744  0.1861
 7067WAT     H121603   7.184   6.908   1.151 -0.9138  0.2893 -0.4269
 7067WAT     H221604   7.167   7.039   1.225  1.4410  0.2592  0.2557
 7068WAT      O21605   2.289   0.361   1.223 -1.0065  0.0316 -0.2041
 7068WAT     H121606   2.378   0.388   1.245 -1.3099  0.8739  0.0335
 7068WAT     H221607   2.293   0.266   1.217  0.0905  0.1123 -1.0083
 7069WAT      O21608   3.813   3.291   3.251  0.5316 -0.0810 -0.3013
 7069WAT     H121609   3.855   3.219   3.203 -0.6323  0.0059 -1.5245
 7069WAT     H221610   3.808   3.260   3.341  1.5928 -0.8163 -0.4712
 7070WAT      O21611   0.188   4.701   0.153 -0.2202  0.1849  0.0806
 7070WAT     H121612   0.227   4.784   0.180 -0.7862  0.3887  0.2923
 7070WAT     H221613   0.099   4.704   0.189 -0.6236 -0.0139 -0.8770
 7071WAT      O21614   4.436   1.291   5.588 -0.7918 -0.5513 -0.5822
 7071WAT     H121615   4.507   1.311   5.527 -0.9026  0.3056 -0.4447
 7071WAT     H221616   4.360   1.276   5.532 -0.4040 -1.9754 -0.7557
 7072WAT      O21617   4.054   6.518   1.808 -0.0656  0.4593  0.8131
 7072WAT     H121618   3.977   6.536   1.755  0.0466  2.0967  1.1564
 7072WAT     H221619   4.048   6.579   1.882  0.5886 -0.6821  1.8490
 7073WAT      O21620   4.114   1.711   1.657 -0.0256  0.4604 -0.0316
 7073WAT     H121621   4.076   1.623   1.654  1.6454 -0.2878 -0.4379
 7073WAT     H221622   4.044   1.766   1.693 -1.0690 -1.0440  0.3498
 7074WAT      O21623   0.063   3.761   0.423 -0.0416  0.1325  0.8834
 7074WAT     H121624  -0.020   3.759   0.472 -0.3385  0.1796  0.3939
 7074WAT     H221625   0.072   3.853   0.396  0.6404  0.3162  1.7166
 7075WAT      O21626   2.518   4.069   4.243 -0.0157 -0.6198 -0.1125
 7075WAT     H121627   2.445   4.036   4.296 -0.8058 -1.3836 -1.5992
 7075WAT     H221628   2.591   4.011   4.263 -0.1218 -0.5317  0.5595
 7076WAT      O21629   1.966   1.643   0.970  0.2038  0.0377  0.7522
 7076WAT     H121630   1.906   1.685   1.032 -0.8835 -1.7831  1.0222
 7076WAT     H221631   1.925   1.658   0.884  0.6654  0.8680  0.6695
 7077WAT      O21632   4.493   4.123   6.245 -0.0156  0.1114 -0.0475
 7077WAT     H121633   4.561   4.070   6.203  0.6388  0.4819  0.5283
 7077WAT     H221634   4.541   4.187   6.298 -0.8084  0.6277  0.0675
 7078WAT      O21635   3.368   4.270   6.209 -0.5036 -0.7523  0.8081
 7078WAT     H121636   3.463   4.273   6.197 -0.5196  0.7216  0.8315
 7078WAT     H221637   3.351   4.184   6.246  1.1044 -0.1780  3.1172
 7079WAT      O21638   6.779   4.254   4.656  0.0407  0.4373 -0.0543
 7079WAT     H121639   6.777   4.289   4.745 -0.3680  1.6543 -0.5102
 7079WAT     H221640   6.839   4.312   4.608  0.1494 -0.1137 -0.6027
 7080WAT      O21641   1.452   2.103   0.327 -0.3808 -0.3407 -0.1184
 7080WAT     H121642   1.467   2.160   0.403 -0.4914 -0.5316  0.0479
 7080WAT     H221643   1.427   2.019   0.365 -0.1904 -0.5078 -0.3630
 7081WAT      O21644   1.619   2.762   4.376  0.6786 -0.0091 -0.7216
 7081WAT     H121645   1.598   2.793   4.464 -2.6997  1.6364 -1.9012
 7081WAT     H221646   1.600   2.669   4.377 -1.9195  0.4481 -0.2388
 7082WAT      O21647   6.516   1.033   0.966 -0.3180 -0.4019  0.5933
 7082WAT     H121648   6.574   1.067   1.034 -0.1035 -0.1834  0.3067
 7082WAT     H221649   6.480   0.952   1.003 -0.1739 -0.3054  0.9485
 7083WAT      O21650   2.576   5.231   5.745  0.0213  0.1159 -0.0034
 7083WAT     H121651   2.531   5.153   5.713  1.3779 -1.0757  0.9145
 7083WAT     H221652   2.540   5.246   5.832  0.9739 -0.5000  0.5010
 7084WAT      O21653   4.144   4.938   3.179 -0.3694 -0.2770  0.3838
 7084WAT     H121654   4.143   4.846   3.206  0.7161 -0.1841  0.7781
 7084WAT     H221655   4.052   4.961   3.169 -0.6590 -1.3396  0.5166
 7085WAT      O21656   2.054   5.570   2.985 -0.2522  0.0561 -0.0332
 7085WAT     H121657   2.127   5.629   2.965 -2.4555  2.1362 -2.6732
 7085WAT     H221658   1.983   5.628   3.014 -0.8128 -1.9376  3.1648
 7086WAT      O21659   2.353   2.436   5.633 -0.0872 -0.4268 -0.2352
 7086WAT     H121660   2.305   2.411   5.712  2.2528 -0.6955  1.2177
 7086WAT     H221661   2.372   2.354   5.589  0.3269 -0.4813  0.0311
 7087WAT      O21662   5.785   6.414   6.134  0.4396 -0.0804  0.0853
 7087WAT     H121663   5.828   6.329   6.148 -0.2386 -0.0827  2.9125
 7087WAT     H221664   5.789   6.457   6.220  0.1153  2.4722 -1.0926
 7088WAT      O21665   4.201   5.188   4.118  0.1723 -0.9056 -0.3253
 7088WAT     H121666   4.174   5.269   4.162  1.9753 -0.8929  0.8573
 7088WAT     H221667   4.207   5.123   4.188  2.4208 -1.0724 -0.6047
 7089WAT      O21668   3.577   2.691   6.012 -0.1040 -0.1328  0.5029
 7089WAT     H121669   3.486   2.666   6.028 -0.1097  0.6818  1.8496
 7089WAT     H221670   3.591   2.668   5.920 -1.8926  0.3926  0.0416
 7090WAT      O21671   5.915   3.726   3.119  0.3836  0.1110  0.2417
 7090WAT     H121672   5.940   3.680   3.039 -0.3616 -1.3239  0.7938
 7090WAT     H221673   5.952   3.673   3.190 -0.9026  0.0764  0.9164
 7091WAT      O21674   1.284   3.841   2.877  0.2840  0.6723  0.4691
 7091WAT     H121675   1.378   3.830   2.869  0.1244  0.3247 -1.0912
 7091WAT     H221676   1.272   3.935   2.888  0.7397  0.8757 -0.6539
 7092WAT      O21677   7.470   1.646   1.755  0.3945 -0.5087  0.4527
 7092WAT     H121678   7.465   1.735   1.721 -1.9467 -0.6462  0.2454
 7092WAT     H221679   7.521   1.597   1.690 -1.1850 -0.0355 -1.2141
 7093WAT      O21680   4.302   5.040   4.839 -0.2324  0.3828  0.0510
 7093WAT     H121681   4.325   5.079   4.923 -1.5837 -0.1396  0.7003
 7093WAT     H221682   4.303   5.114   4.778 -1.9286  1.3609  1.0970
 7094WAT      O21683   2.260   4.150   5.928 -0.0950 -0.4975  0.3909
 7094WAT     H121684   2.184   4.172   5.874 -0.0039 -0.4381  0.2870
 7094WAT     H221685   2.306   4.083   5.878  0.9010  0.7338 -0.4062
 7095WAT      O21686   4.008   2.646   4.474  0.2418  0.5200  0.2443
 7095WAT     H121687   4.052   2.562   4.486 -0.3192  0.3407  1.1922
 7095WAT     H221688   4.055   2.707   4.530 -0.8895  0.2463  1.5426
 7096WAT      O21689   1.802   5.569   0.012  0.1733  0.5193  0.2133
 7096WAT     H121690   1.753   5.619   0.076 -0.1879  2.7938 -1.6952
 7096WAT     H221691   1.746   5.494  -0.009 -0.3909  0.6002  1.3696
 7097WAT      O21692   4.658   1.909   6.170  0.7567  0.0721  0.3234
 7097WAT     H121693   4.581   1.931   6.222  1.4263  1.3237  0.8307
 7097WAT     H221694   4.628   1.838   6.112  0.1098 -1.6545  2.6389
 7098WAT      O21695   3.331   4.451   0.650 -0.6975  0.0420  0.1472
 7098WAT     H121696   3.305   4.442   0.742  0.2144  0.2459  0.4329
 7098WAT     H221697   3.269   4.396   0.602 -1.8935  0.8136  0.7610
 7099WAT      O21698   6.233   3.384   2.978 -0.1632  0.0278  0.0916
 7099WAT     H121699   6.302   3.319   2.966 -0.5734 -0.3781 -0.0797
 7099WAT     H221700   6.260   3.432   3.056  2.2251  2.2882 -1.9204
 7100WAT      O21701   1.891   5.988   5.416 -0.1682  0.3778  0.2670
 7100WAT     H121702   1.874   6.064   5.471  0.7872  0.4733  0.4505
 7100WAT     H221703   1.953   6.019   5.350 -0.0641 -0.1375  0.1144
 7101WAT      O21704   4.670   4.831   5.417  0.5458 -0.2948  0.4374
 7101WAT     H121705   4.673   4.820   5.512  1.9626  1.6010  0.6463
 7101WAT     H221706   4.739   4.893   5.397  1.4985 -1.9959 -2.0702
 7102WAT      O21707   5.140   4.972   2.692  0.2059  0.3275 -0.4543
 7102WAT     H121708   5.174   5.008   2.610  0.4408  0.3913 -0.3310
 7102WAT     H221709   5.125   5.049   2.747  0.0838  0.2826 -0.4256
 7103WAT      O21710   1.182   2.759   5.958  0.1851 -0.6576  0.7680
 7103WAT     H121711   1.253   2.773   5.896 -0.0410 -0.6461  0.5068
 7103WAT     H221712   1.160   2.847   5.989 -0.5803 -0.5145 -0.1347
 7104WAT      O21713   1.854   3.036   5.748  0.3537 -0.1971  0.0053
 7104WAT     H121714   1.778   2.981   5.770  0.9557 -0.2097  2.4010
 7104WAT     H221715   1.820   3.101   5.687 -1.5102 -0.4241  0.7361
 7105WAT      O21716   1.912   5.462   1.288  0.4983 -0.0392 -0.0489
 7105WAT     H121717   1.937   5.553   1.275  0.0603  0.1417  0.3601
 7105WAT     H221718   1.966   5.431   1.360 -1.3335  0.7519  1.7771
 7106WAT      O21719   4.650   2.729   5.572  0.1026 -0.8411  0.0426
 7106WAT     H121720   4.564   2.694   5.546 -0.6783  1.9940 -1.6789
 7106WAT     H221721   4.630   2.806   5.625  1.3604  1.2497 -2.2538
 7107WAT      O21722   0.349   6.386   2.302  0.0971 -0.1777 -0.4676
 7107WAT     H121723   0.338   6.389   2.397  2.9089  0.4813 -0.0563
 7107WAT     H221724   0.314   6.469   2.271  0.9238  0.4802  0.2900
 7108WAT      O21725   0.998   5.704   1.373  0.5965  0.0849  0.3737
 7108WAT     H121726   1.077   5.656   1.347  0.5680  0.4760 -0.4537
 7108WAT     H221727   0.972   5.663   1.456  0.5041 -1.3925 -0.3584
 7109WAT      O21728   3.380   2.203   0.603  0.7321  0.0360 -0.0223
 7109WAT     H121729   3.428   2.284   0.623 -1.3422  0.8492  2.0989
 7109WAT     H221730   3.378   2.156   0.687 -0.1468 -1.0728 -0.6440
 7110WAT      O21731   7.112   0.914   1.156 -0.5445  0.0242 -0.3021
 7110WAT     H121732   7.160   0.856   1.097  3.4275  1.4746  1.1853
 7110WAT     H221733   7.115   0.870   1.241 -0.8933  0.6650  0.0510
 7111WAT      O21734   5.532   6.095   1.109  0.4495 -0.4986 -0.5070
 7111WAT     H121735   5.572   6.113   1.023  0.4949 -0.0937 -0.4025
 7111WAT     H221736   5.602   6.110   1.172  0.3817 -0.6755 -0.3887
 7112WAT      O21737   6.415   4.005   3.420  0.3155 -0.8611  0.1377
 7112WAT     H121738   6.466   3.964   3.490 -0.0425  0.9169  1.5085
 7112WAT     H221739   6.355   4.064   3.465  1.0511  1.4410 -1.6910
 7113WAT      O21740   6.810   0.832   0.855  0.6516 -0.4990  0.9513
 7113WAT     H121741   6.749   0.870   0.918  0.5087  2.6147 -0.8504
 7113WAT     H221742   6.887   0.808   0.907 -0.6348 -1.0089  2.6972
 7114WAT      O21743   6.243   0.205   2.784  0.1105  0.1720 -0.3576
 7114WAT     H121744   6.267   0.292   2.751  0.0547  0.6245  0.7441
 7114WAT     H221745   6.183   0.223   2.856 -1.2631 -0.8467 -1.1902
 7115WAT      O21746   4.732   4.380   6.087  0.5170  0.3449 -0.3649
 7115WAT     H121747   4.682   4.392   6.167  0.0635  0.3417 -0.6426
 7115WAT     H221748   4.809   4.330   6.114  0.5024  0.5758  0.1112
 7116WAT      O21749   2.665   5.269   4.949 -0.0144 -0.3273  0.0396
 7116WAT     H121750   2.641   5.361   4.946  1.5886  0.1188 -0.0972
 7116WAT     H221751   2.609   5.226   4.885 -0.9424  0.5019  0.2872
 7117WAT      O21752   4.623   6.938   0.751 -0.6227  0.0365 -0.3462
 7117WAT     H121753   4.652   6.962   0.839  2.1747  0.8355 -1.3812
 7117WAT     H221754   4.528   6.953   0.752 -0.8070 -0.6814  2.6936
 7118WAT      O21755   0.811   0.929   4.868  0.0146  0.4045 -0.0011
 7118WAT     H121756   0.833   0.836   4.861  0.2837  0.3713  1.1036
 7118WAT     H221757   0.756   0.935   4.946 -1.0584  0.9978 -0.7803
 7119WAT      O21758   5.620   2.010   0.635  0.3356 -0.3414 -0.0008
 7119WAT     H121759   5.617   1.920   0.667  0.1139 -0.2526  0.2319
 7119WAT     H221760   5.700   2.015   0.582  0.2492 -0.7267 -0.1681
 7120WAT      O21761   4.358   4.883   0.861  0.1574 -0.2725 -0.4958
 7120WAT     H121762   4.391   4.926   0.939  2.1096  1.1194 -1.9844
 7120WAT     H221763   4.409   4.802   0.854  0.4451 -0.0804 -0.6515
 7121WAT      O21764   2.624   5.125   4.491 -0.3608 -0.1947 -0.4387
 7121WAT     H121765   2.677   5.193   4.450 -1.3223  1.0476  0.3267
 7121WAT     H221766   2.680   5.047   4.488  2.2531  1.3857  1.8081
 7122WAT      O21767   7.342   3.700   3.261 -0.2702  0.0927  0.1812
 7122WAT     H121768   7.293   3.626   3.297 -0.8776  1.3069  2.0043
 7122WAT     H221769   7.408   3.720   3.328  0.4533  0.6628 -0.6795
 7123WAT      O21770   3.046   2.924   3.366  0.2591 -0.0165 -0.1897
 7123WAT     H121771   3.086   2.972   3.438  1.3398 -0.9055 -0.1723
 7123WAT     H221772   2.969   2.882   3.404  0.6487 -0.2253  0.3788
 7124WAT      O21773   2.372   6.485   5.419 -0.5728  0.5121  0.0643
 7124WAT     H121774   2.420   6.409   5.384  0.2039  0.9760  0.0901
 7124WAT     H221775   2.294   6.448   5.459 -0.2818 -0.2616 -0.0658
 7125WAT      O21776   4.744   3.908   1.524  0.2617 -0.6514  0.5927
 7125WAT     H121777   4.733   4.003   1.536  3.9703  0.0439 -0.1935
 7125WAT     H221778   4.680   3.869   1.583 -0.5929  2.3636  1.8665
 7126WAT      O21779   7.234   1.525   3.770  0.7914  0.0654  0.8703
 7126WAT     H121780   7.275   1.603   3.735  0.2479  0.1086  0.3117
 7126WAT     H221781   7.300   1.456   3.761  0.8492  0.1983  0.2727
 7127WAT      O21782   7.251   2.052   1.862  0.0435 -0.0790  0.3448
 7127WAT     H121783   7.255   2.044   1.957  1.4763  0.9446  0.3980
 7127WAT     H221784   7.339   2.028   1.832 -0.1974  0.2466 -0.6791
 7128WAT      O21785   7.018   6.396   4.254  0.3484  0.0573  0.7748
 7128WAT     H121786   7.003   6.479   4.301 -1.0505  2.8187 -3.8462
 7128WAT     H221787   6.936   6.349   4.262 -1.0713  1.9853 -1.2275
 7129WAT      O21788   4.147   2.780   4.648 -0.0325  0.0372  0.2025
 7129WAT     H121789   4.235   2.743   4.648 -0.6073 -1.3761  0.0335
 7129WAT     H221790   4.161   2.874   4.639  1.4916 -0.0542  1.2918
 7130WAT      O21791   3.992   1.260   0.311  0.2213 -0.0344  0.0215
 7130WAT     H121792   3.993   1.355   0.300  1.3455 -0.2147 -1.9171
 7130WAT     H221793   4.020   1.246   0.401  0.9975  1.4553  0.0507
 7131WAT      O21794   3.459   2.534   3.495 -0.1196  0.1859 -0.4129
 7131WAT     H121795   3.408   2.611   3.468  1.1655  0.4443 -2.3535
 7131WAT     H221796   3.506   2.562   3.573 -0.0421  1.2534 -0.8216
 7132WAT      O21797   3.214   1.221   5.752  0.3001 -0.3264  0.0148
 7132WAT     H121798   3.171   1.218   5.838 -0.4879  1.3068 -0.2931
 7132WAT     H221799   3.285   1.283   5.763  0.1657 -0.0758 -0.5284
 7133WAT      O21800   4.378   4.106   0.891  0.4582 -0.4351 -0.0191
 7133WAT     H121801   4.449   4.047   0.918  1.0663 -1.4102 -3.3038
 7133WAT     H221802   4.308   4.047   0.861 -0.4446  0.5280  0.1408
 7134WAT      O21803   0.500   4.927   1.494 -0.6562 -0.2344  0.2555
 7134WAT     H121804   0.485   4.896   1.405  1.0060  0.7861 -0.4448
 7134WAT     H221805   0.551   4.857   1.535 -0.0413 -0.0431 -0.1501
 7135WAT      O21806   5.324   2.034   1.245  0.5002 -0.3903  0.0767
 7135WAT     H121807   5.253   1.972   1.233 -0.1538  0.5659 -1.2238
 7135WAT     H221808   5.337   2.038   1.340  0.0378 -1.9023  0.2146
 7136WAT      O21809   0.195   5.586   2.390 -0.3067  0.0237  0.1402
 7136WAT     H121810   0.191   5.511   2.450  1.9040  0.1083  0.4563
 7136WAT     H221811   0.211   5.546   2.304 -1.9039  0.0042 -0.1787
 7137WAT      O21812   5.493   3.544   2.714 -0.5377  0.2036  0.3547
 7137WAT     H121813   5.496   3.528   2.809  0.0029 -0.1346  0.2870
 7137WAT     H221814   5.567   3.493   2.680 -1.9285 -1.3250 -0.4825
 7138WAT      O21815   5.748   3.079   4.328  0.1472 -0.3067 -0.1093
 7138WAT     H121816   5.767   3.168   4.300  0.5182 -0.4216 -0.2174
 7138WAT     H221817   5.722   3.033   4.248 -0.6028 -0.1492  0.0365
 7139WAT      O21818   6.761   5.394   6.109  0.1085  0.0649  0.3241
 7139WAT     H121819   6.687   5.335   6.094 -0.0163  0.2693  0.1250
 7139WAT     H221820   6.835   5.336   6.123  0.5035 -0.1863 -2.3037
 7140WAT      O21821   1.614   4.675   1.324  0.2298  0.2186 -0.6432
 7140WAT     H121822   1.681   4.610   1.345 -1.5492 -1.6897 -0.3974
 7140WAT     H221823   1.625   4.744   1.389  1.4399 -0.4333 -0.1225
 7141WAT      O21824   4.048   4.548   0.748 -0.3015 -0.1326 -0.3869
 7141WAT     H121825   4.061   4.641   0.765 -1.1077  0.1958 -1.4524
 7141WAT     H221826   4.136   4.514   0.730 -0.2021  0.8644 -2.0069
 7142WAT      O21827   7.334   2.647   2.406 -0.5974  0.6451 -0.2819
 7142WAT     H121828   7.320   2.680   2.494 -0.3522  1.0571 -0.3932
 7142WAT     H221829   7.270   2.694   2.352 -0.3184  0.8602 -0.4259
 7143WAT      O21830   3.695   5.489   5.438  0.2985  0.4527  0.2172
 7143WAT     H121831   3.614   5.499   5.488  2.0771  1.7571  3.0896
 7143WAT     H221832   3.668   5.496   5.346 -3.1947 -2.2154  0.8417
 7144WAT      O21833   1.801   2.112   3.959 -0.0245  0.1784 -0.0405
 7144WAT     H121834   1.879   2.081   4.005 -1.1558 -2.6317  0.1398
 7144WAT     H221835   1.733   2.115   4.026 -0.6891  0.1125 -0.7003
 7145WAT      O21836   3.515   7.148   2.859  0.4500  0.3409 -0.2728
 7145WAT     H121837   3.501   7.198   2.940  2.2009  1.5282 -0.6396
 7145WAT     H221838   3.506   7.213   2.789  1.1085 -0.1993 -0.8756
 7146WAT      O21839   3.105   4.910   5.751  0.0701  0.5859  0.2311
 7146WAT     H121840   3.063   4.996   5.744 -0.9912  0.0536 -0.1394
 7146WAT     H221841   3.154   4.915   5.833  0.1883  1.6091  0.1182
 7147WAT      O21842   5.556   3.945   4.377  0.1336 -0.2539 -0.4316
 7147WAT     H121843   5.549   4.016   4.313  2.0229 -1.4413 -2.1232
 7147WAT     H221844   5.472   3.900   4.372 -0.2884  0.5620 -0.9878
 7148WAT      O21845   2.308   4.186   0.930 -0.0042 -0.6521  0.2050
 7148WAT     H121846   2.312   4.244   1.006 -0.9365 -0.8540  0.4230
 7148WAT     H221847   2.218   4.153   0.930 -0.2526 -0.0681 -1.4160
 7149WAT      O21848   4.732   5.805   0.873  0.5397 -0.4465  0.3100
 7149WAT     H121849   4.691   5.803   0.959 -0.3863 -1.3365 -0.1386
 7149WAT     H221850   4.816   5.760   0.885  0.4402 -0.5126  0.7607
 7150WAT      O21851   6.742   6.323   3.453  0.1477  0.3758  0.5552
 7150WAT     H121852   6.768   6.240   3.494 -1.4230  0.1028  1.0736
 7150WAT     H221853   6.728   6.383   3.526  0.7521  0.9589  0.2079
 7151WAT      O21854   4.381   5.097   3.915  0.8056 -0.3844 -0.2520
 7151WAT     H121855   4.314   5.029   3.918 -1.7602  1.8411 -1.9904
 7151WAT     H221856   4.370   5.146   3.997  0.9674 -0.5562 -0.1254
 7152WAT      O21857   6.106   6.783   0.651 -0.4955 -0.3820 -0.3141
 7152WAT     H121858   6.088   6.843   0.723  1.7084 -1.0832  0.9414
 7152WAT     H221859   6.200   6.791   0.636 -0.4624 -2.1329 -1.3604
 7153WAT      O21860   4.845   0.545   2.707  0.4248 -0.2037 -0.2361
 7153WAT     H121861   4.900   0.498   2.769 -0.2238 -2.6424 -1.3965
 7153WAT     H221862   4.875   0.515   2.621 -0.6182  0.8634 -1.0103
 7154WAT      O21863   2.323   0.575   5.357  0.3293 -0.2189 -0.6438
 7154WAT     H121864   2.348   0.596   5.447  0.6297 -0.0675 -0.7597
 7154WAT     H221865   2.235   0.539   5.363  0.6684 -1.0101 -0.1892
 7155WAT      O21866   1.679   7.161   6.137  0.6185 -0.9136 -0.7141
 7155WAT     H121867   1.696   7.255   6.141 -1.9085 -0.4041 -0.3230
 7155WAT     H221868   1.766   7.121   6.133  1.7460  1.4654 -2.2037
 7156WAT      O21869   2.227   6.440   5.052  0.4064  0.2005 -0.4900
 7156WAT     H121870   2.244   6.529   5.082  0.8202 -0.2098  0.5347
 7156WAT     H221871   2.151   6.411   5.103  0.5683 -0.1978 -0.4725
 7157WAT      O21872   4.399   2.368   0.665  0.5198 -0.0261  0.0925
 7157WAT     H121873   4.425   2.295   0.608 -3.9912 -2.0384  0.1460
 7157WAT     H221874   4.393   2.443   0.606 -0.3328 -1.1636 -1.3473
 7158WAT      O21875   0.492   2.015   1.494 -0.2829  0.1817  0.3374
 7158WAT     H121876   0.428   1.950   1.523 -0.2124 -0.7130 -1.3725
 7158WAT     H221877   0.571   1.997   1.546 -0.2331 -1.1928 -0.1786
 7159WAT      O21878   5.427   6.086   4.452  0.1421 -0.3065  0.5854
 7159WAT     H121879   5.461   6.003   4.485 -2.0240 -1.4471  0.1314
 7159WAT     H221880   5.376   6.062   4.374 -1.3432  1.2993  0.9945
 7160WAT      O21881   6.038   6.290   1.185 -0.0933 -0.0908  0.2422
 7160WAT     H121882   6.003   6.298   1.274  0.7390  0.0872  0.5587
 7160WAT     H221883   6.118   6.342   1.186  0.0871 -0.3457 -0.5263
 7161WAT      O21884   5.219   1.630   3.537  0.1136 -0.0562 -0.0040
 7161WAT     H121885   5.129   1.599   3.550  0.0351  0.2934  0.3005
 7161WAT     H221886   5.252   1.643   3.626 -0.1668  1.6425 -0.1151
 7162WAT      O21887   2.264   6.619   1.215 -0.6233  0.3259  0.4428
 7162WAT     H121888   2.264   6.566   1.135 -2.8168  0.8452  0.0315
 7162WAT     H221889   2.356   6.625   1.240  0.0625 -0.3401 -1.7132
 7163WAT      O21890   4.934   3.132   5.970 -0.0064  0.4828  0.3207
 7163WAT     H121891   4.906   3.049   6.009 -0.3026 -0.2618 -1.4024
 7163WAT     H221892   4.854   3.167   5.930  0.9542 -0.6197 -2.8053
 7164WAT      O21893   4.582   0.628   1.711  0.3247 -0.1365 -0.2411
 7164WAT     H121894   4.545   0.563   1.771  1.4170 -0.2512  0.3309
 7164WAT     H221895   4.506   0.673   1.675 -0.4869 -1.8225 -0.7629
 7165WAT      O21896   7.224   4.771   1.584  0.1587 -0.4909  0.5605
 7165WAT     H121897   7.149   4.750   1.528  1.0685  1.8825 -1.7771
 7165WAT     H221898   7.226   4.701   1.649 -3.5333 -1.1336  0.2038
 7166WAT      O21899   5.625   4.642   3.665 -0.0524 -0.0653  0.0264
 7166WAT     H121900   5.583   4.594   3.737  0.2214 -0.7790 -0.2847
 7166WAT     H221901   5.712   4.665   3.698  0.5055 -1.3865 -0.4661
 7167WAT      O21902   1.842   2.545   4.944 -0.1754 -0.0169  0.6275
 7167WAT     H121903   1.906   2.505   5.002  1.5113 -1.0577 -1.7792
 7167WAT     H221904   1.874   2.634   4.930  0.3075 -0.2577  0.1288
 7168WAT      O21905   4.930   4.735   3.844 -0.6162  0.1278 -0.4181
 7168WAT     H121906   4.883   4.652   3.836  0.7475 -0.6792 -0.2241
 7168WAT     H221907   5.003   4.728   3.782  0.3678  0.5740  0.6544
 7169WAT      O21908   7.621   2.325   5.578 -0.2044  0.3670  0.1904
 7169WAT     H121909   7.602   2.232   5.563 -1.7221  0.5322  0.8461
 7169WAT     H221910   7.550   2.354   5.635 -1.2425  2.5407 -2.0089
 7170WAT      O21911   0.299   3.027   2.512 -0.3168 -0.1903  0.0931
 7170WAT     H121912   0.390   3.056   2.504 -0.0662 -0.9748  0.0620
 7170WAT     H221913   0.248   3.100   2.476  0.2351  0.6307  0.9252
 7171WAT      O21914   5.914   5.115   6.226 -0.1006 -0.4520 -0.2042
 7171WAT     H121915   5.875   5.116   6.313 -0.9762  1.1222 -0.5872
 7171WAT     H221916   5.858   5.172   6.173  2.0423  0.9685 -1.0759
 7172WAT      O21917   2.878   4.167   4.821 -0.3150  0.6061 -0.2154
 7172WAT     H121918   2.898   4.096   4.761 -2.0042 -0.2402  0.1552
 7172WAT     H221919   2.937   4.154   4.895  1.2257  1.1897 -1.2930
 7173WAT      O21920   7.377   4.718   0.700  0.4092 -0.3692  0.4066
 7173WAT     H121921   7.451   4.661   0.678  1.5994  1.8063 -1.7420
 7173WAT     H221922   7.326   4.723   0.619 -0.8846 -0.0707  1.2046
 7174WAT      O21923   2.010   1.315   3.061  0.1379  0.7533  0.3213
 7174WAT     H121924   2.056   1.385   3.108  0.4905  0.1243  0.9269
 7174WAT     H221925   2.031   1.235   3.110  3.1831 -0.5129 -2.7018
 7175WAT      O21926   6.021   0.174   0.405 -0.0913  1.3016  0.2916
 7175WAT     H121927   6.022   0.119   0.326  0.9071 -0.4713  1.4773
 7175WAT     H221928   5.946   0.231   0.393 -0.1647  0.8476 -1.7973
 7176WAT      O21929   4.899   5.523   5.536 -0.0180  0.2670  0.3162
 7176WAT     H121930   4.873   5.584   5.467 -1.4401  0.7450  1.2187
 7176WAT     H221931   4.816   5.492   5.572  0.6573 -2.2399 -0.1189
 7177WAT      O21932   0.810   5.489   3.141 -0.2543  0.8885  0.7659
 7177WAT     H121933   0.823   5.508   3.234 -0.2916  2.0455  0.5491
 7177WAT     H221934   0.849   5.564   3.096 -0.7600  0.6175 -0.1379
 7178WAT      O21935   1.139   0.058   4.493 -0.6549 -0.4109  0.0464
 7178WAT     H121936   1.115   0.135   4.544 -3.8649 -0.3426 -1.3946
 7178WAT     H221937   1.143  -0.013   4.558 -1.3083  0.2877  0.8746
 7179WAT      O21938   3.049   4.800   4.708  0.3137 -0.8452 -0.0879
 7179WAT     H121939   3.132   4.817   4.752 -1.3753  1.4218  2.5044
 7179WAT     H221940   3.026   4.711   4.734  0.8060 -0.6116  1.2412
 7180WAT      O21941   7.565   2.309   3.270  0.1703  0.6292 -0.2086
 7180WAT     H121942   7.601   2.356   3.345 -1.4986 -0.6153  1.4597
 7180WAT     H221943   7.587   2.217   3.285 -0.4336  0.3205 -1.0988
 7181WAT      O21944   0.626   1.773   3.223 -0.2468  0.6041 -0.1873
 7181WAT     H121945   0.540   1.796   3.188 -1.9433 -1.9216  1.9706
 7181WAT     H221946   0.638   1.832   3.298  0.0920  1.1897 -0.6942
 7182WAT      O21947   1.429   1.508   2.709 -0.1312  0.5011 -0.1499
 7182WAT     H121948   1.479   1.571   2.761  0.7176 -1.1286  1.1076
 7182WAT     H221949   1.488   1.485   2.637  0.3616 -0.2535  0.4686
 7183WAT      O21950   0.536   5.864   5.296 -0.1223 -0.4402  0.4724
 7183WAT     H121951   0.630   5.847   5.294 -0.0639 -0.2851 -2.2519
 7183WAT     H221952   0.498   5.792   5.247 -1.4330 -0.3968  1.3816
 7184WAT      O21953   4.695   0.185   4.391  0.2570 -0.6039 -0.3602
 7184WAT     H121954   4.643   0.111   4.421 -1.4885  0.9414  0.7103
 7184WAT     H221955   4.630   0.253   4.371  1.8298  1.4508  1.0575
 7185WAT      O21956   6.960   5.157   5.488 -0.7120  0.5597 -0.1042
 7185WAT     H121957   7.024   5.228   5.479  0.5941 -0.5391  0.0732
 7185WAT     H221958   6.930   5.164   5.579  3.9231 -2.5256  2.1318
 7186WAT      O21959   3.979   5.957   3.392 -0.8191 -0.1946  0.0972
 7186WAT     H121960   3.917   5.884   3.400  1.0414 -1.8024  0.5644
 7186WAT     H221961   3.956   6.017   3.463 -0.0344 -2.2274  2.1934
 7187WAT      O21962   5.185   3.626   1.293 -0.1883 -0.4114 -0.3040
 7187WAT     H121963   5.174   3.532   1.275  0.3559 -0.2783 -1.4202
 7187WAT     H221964   5.100   3.655   1.324 -0.1559 -1.4351  0.8604
 7188WAT      O21965   3.406   1.812   3.740  0.4104 -0.5348 -0.0304
 7188WAT     H121966   3.407   1.888   3.798 -1.4033 -1.3427  1.1399
 7188WAT     H221967   3.405   1.736   3.800  1.7938 -1.4983 -1.1608
 7189WAT      O21968   2.306   5.401   4.970 -0.3159  0.3324  0.1305
 7189WAT     H121969   2.228   5.357   5.004  0.1976  0.4224  1.5109
 7189WAT     H221970   2.374   5.379   5.033  0.6239  0.7723 -0.7184
 7190WAT      O21971   0.640   3.292   1.654  0.3989 -0.0124  0.1610
 7190WAT     H121972   0.613   3.207   1.689 -0.6803  0.4535  0.4858
 7190WAT     H221973   0.676   3.271   1.568 -0.9385 -0.6805 -0.2681
 7191WAT      O21974   5.707   4.445   5.034  0.0314 -0.1352  0.0154
 7191WAT     H121975   5.746   4.517   4.986  1.4744 -0.3576  0.8051
 7191WAT     H221976   5.633   4.484   5.080  0.5778  0.7677  0.1479
 7192WAT      O21977   6.313   3.408   2.098 -0.0885  0.0500  0.0127
 7192WAT     H121978   6.304   3.369   2.011  0.4902 -0.3828  0.1368
 7192WAT     H221979   6.228   3.395   2.139 -0.3682  0.2747 -0.4988
 7193WAT      O21980   1.455   1.338   3.485 -0.7883 -0.0691 -0.3471
 7193WAT     H121981   1.457   1.404   3.416 -1.2100  0.5339  0.2099
 7193WAT     H221982   1.462   1.387   3.567  0.4323 -0.8163  0.0440
 7194WAT      O21983   5.524   0.838   0.235  0.0082 -0.1873  0.2818
 7194WAT     H121984   5.596   0.817   0.175 -1.6177 -1.1141 -1.4599
 7194WAT     H221985   5.544   0.926   0.267  1.5002 -0.1122 -0.7791
 7195WAT      O21986   4.570   2.879   1.256 -0.0291  0.1511  0.3136
 7195WAT     H121987   4.560   2.969   1.284  0.1344  0.5330 -0.7886
 7195WAT     H221988   4.578   2.828   1.337 -2.0373  0.8772  1.0215
 7196WAT      O21989   6.495   2.631   4.284 -0.7206 -0.1427  0.0612
 7196WAT     H121990   6.556   2.558   4.272  2.1742  1.7022  2.1562
 7196WAT     H221991   6.527   2.699   4.224 -3.1345 -0.3270 -1.5741
 7197WAT      O21992   3.967   4.483   3.741  0.5049  0.3229 -0.1740
 7197WAT     H121993   4.031   4.456   3.675 -0.8797 -1.3837 -0.8844
 7197WAT     H221994   3.967   4.412   3.804 -2.1500 -0.7755 -1.2906
 7198WAT      O21995   0.421   5.829   6.008  0.4467 -0.2933  0.3670
 7198WAT     H121996   0.400   5.842   6.100 -0.3790 -3.0885  0.6607
 7198WAT     H221997   0.513   5.857   6.000  0.0532  1.5478  1.5809
 7199WAT      O21998   3.167   3.495   1.076 -0.3552  0.0215  0.3652
 7199WAT     H121999   3.128   3.581   1.093 -2.4877 -1.0443  1.1004
 7199WAT     H222000   3.209   3.471   1.158  1.1536  0.7487 -0.1450
 7200WAT      O22001   6.017   3.424   1.834  0.5403 -0.5100  0.0153
 7200WAT     H122002   6.023   3.510   1.874 -1.3558 -0.2870 -0.0868
 7200WAT     H222003   6.036   3.363   1.906 -0.4698 -0.0551  0.6920
 7201WAT      O22004   4.031   1.978   5.665 -0.4415  0.2051  0.1191
 7201WAT     H122005   3.955   1.974   5.723 -0.7858  3.2222  0.0132
 7201WAT     H222006   4.105   1.996   5.722 -0.3229  0.3991 -0.0941
 7202WAT      O22007   6.676   5.286   3.062 -0.1574 -0.1963 -0.1879
 7202WAT     H122008   6.614   5.316   2.996  0.5680  1.8293 -0.0048
 7202WAT     H222009   6.656   5.193   3.072 -2.2859  0.0973 -1.0582
 7203WAT      O22010   6.637   2.015   5.564 -0.3599 -0.6655  0.2438
 7203WAT     H122011   6.611   1.927   5.592  1.0828 -0.5081  2.3334
 7203WAT     H222012   6.630   2.069   5.643  0.7535  0.6199 -0.4747
 7204WAT      O22013   4.632   4.300   3.692  0.0319  0.1270  0.6275
 7204WAT     H122014   4.619   4.222   3.747 -1.6084  0.1725  0.3525
 7204WAT     H222015   4.561   4.296   3.628  1.4352  0.5031 -1.0167
 7205WAT      O22016   2.108   2.258   0.488 -0.0203  0.5978  0.2780
 7205WAT     H122017   2.114   2.182   0.546  1.3257 -0.3197 -1.0076
 7205WAT     H222018   2.196   2.296   0.489  0.5390 -0.4124 -2.3708
 7206WAT      O22019   3.924   3.089   0.736 -0.1098 -0.1174 -1.0112
 7206WAT     H122020   3.885   3.086   0.649 -1.4734 -0.1254 -0.4311
 7206WAT     H222021   3.979   3.167   0.735 -0.3506  0.0515 -1.7758
 7207WAT      O22022   6.540   0.809   0.273 -0.2216 -0.4376 -0.5900
 7207WAT     H122023   6.529   0.839   0.363  1.8116  1.6207 -0.9196
 7207WAT     H222024   6.534   0.714   0.278  0.9475 -0.4625  1.9254
 7208WAT      O22025   3.594   6.794   4.536 -0.1227  0.4048  0.5616
 7208WAT     H122026   3.675   6.798   4.587  0.4099  0.9185 -0.2909
 7208WAT     H222027   3.531   6.846   4.587  0.4376  1.0250  0.6451
 7209WAT      O22028   2.370   0.987   3.569  0.3003  0.3226  0.3098
 7209WAT     H122029   2.301   0.922   3.554 -0.9587  1.5772  0.4155
 7209WAT     H222030   2.323   1.068   3.590  1.7121  1.8431 -1.8914
 7210WAT      O22031   1.383   6.716   6.098 -0.2161 -0.0026  0.6134
 7210WAT     H122032   1.407   6.745   6.186 -0.2468 -1.9343  1.3206
 7210WAT     H222033   1.288   6.704   6.102 -0.1065 -0.9431  0.6150
 7211WAT      O22034   7.489   3.602   5.511 -0.1266  0.6890 -0.6835
 7211WAT     H122035   7.513   3.523   5.559  0.7556  1.1497 -0.3462
 7211WAT     H222036   7.443   3.570   5.434  1.8132 -0.2783 -1.5026
 7212WAT      O22037   4.698   6.090   1.269  0.5268 -0.4247  0.7807
 7212WAT     H122038   4.706   5.997   1.290  0.3738 -0.2945  1.4278
 7212WAT     H222039   4.727   6.136   1.348  0.0071  0.0730  0.6938
 7213WAT      O22040   3.924   3.973   5.569 -0.6957  0.0946  0.4785
 7213WAT     H122041   3.958   3.987   5.657 -1.1297  1.2224  0.4852
 7213WAT     H222042   3.988   3.916   5.527 -0.2665 -0.1006  1.3838
 7214WAT      O22043   2.546   6.251   5.342 -0.7160 -0.1539 -0.1148
 7214WAT     H122044   2.518   6.167   5.379 -1.1971 -0.5696 -1.3705
 7214WAT     H222045   2.636   6.238   5.315  0.0832  0.5470  2.0160
 7215WAT      O22046   0.740   2.454   3.247 -0.8842  0.8971  0.6190
 7215WAT     H122047   0.742   2.499   3.163 -1.0675  0.6912  0.5017
 7215WAT     H222048   0.816   2.395   3.243 -1.0811  0.6503  0.4612
 7216WAT      O22049   6.366   4.770   4.946  0.0484  0.3838  0.1538
 7216WAT     H122050   6.335   4.747   4.858 -0.5515 -2.2119  0.9775
 7216WAT     H222051   6.376   4.687   4.991  0.9110  1.6196  2.4018
 7217WAT      O22052   7.475   6.443   3.976 -0.0321 -0.0993  0.2676
 7217WAT     H122053   7.473   6.483   4.062  0.3534  0.3368  0.0754
 7217WAT     H222054   7.400   6.383   3.975 -0.5357  0.5221  0.6011
 7218WAT      O22055   2.979   6.829   5.183 -0.1990 -0.2635 -0.0609
 7218WAT     H122056   2.933   6.815   5.266 -1.8081 -0.1887 -0.9000
 7218WAT     H222057   2.943   6.763   5.124 -0.3536  0.7731 -1.1715
 7219WAT      O22058   5.876   4.222   0.217  0.0728 -0.1802 -0.1301
 7219WAT     H122059   5.879   4.217   0.313 -0.7162 -1.0460 -0.1256
 7219WAT     H222060   5.835   4.306   0.198 -0.2941 -0.2565  0.3105
 7220WAT      O22061   7.206   5.624   1.024  0.2395 -0.0673 -0.2488
 7220WAT     H122062   7.207   5.533   1.055  0.6903 -0.0737 -0.2651
 7220WAT     H222063   7.137   5.627   0.958  0.6199 -0.5504 -0.6767
 7221WAT      O22064   0.331   0.125   4.132 -0.3545  0.9200 -0.1414
 7221WAT     H122065   0.379   0.053   4.174 -1.1681  0.5560  0.1843
 7221WAT     H222066   0.261   0.146   4.194  0.0269  2.1714 -0.1129
 7222WAT      O22067   5.491   1.766   1.061 -0.1698  0.5170 -0.4311
 7222WAT     H122068   5.402   1.748   1.032  0.0979  0.6972 -1.3807
 7222WAT     H222069   5.542   1.689   1.034  0.0068  0.5014 -0.0687
 7223WAT      O22070   5.329   0.339   2.897 -0.7471 -0.3188  0.4225
 7223WAT     H122071   5.343   0.396   2.972  3.0585 -0.9729  0.4121
 7223WAT     H222072   5.324   0.251   2.933 -3.2424 -0.3579  0.1557
 7224WAT      O22073   1.954   3.611   3.331 -0.3101 -0.3468 -0.0738
 7224WAT     H122074   1.956   3.525   3.374 -0.2436 -0.8823 -1.1259
 7224WAT     H222075   2.025   3.609   3.268 -0.6177  0.3021 -0.4570
 7225WAT      O22076   4.696   6.784   1.985 -0.0515  0.1908  0.1279
 7225WAT     H122077   4.721   6.864   2.032  1.1474  1.6166 -2.6614
 7225WAT     H222078   4.617   6.809   1.936  1.0641  0.1709 -1.7751
 7226WAT      O22079   0.758   5.052   5.599 -0.6102  0.1482 -0.0442
 7226WAT     H122080   0.850   5.069   5.578 -0.5200 -0.5826 -0.2862
 7226WAT     H222081   0.734   5.122   5.660  0.8452 -1.0465  2.0498
 7227WAT      O22082   0.462   0.396   4.546  0.0580  0.1192 -0.4389
 7227WAT     H122083   0.383   0.447   4.529 -1.8261 -2.0355  1.2425
 7227WAT     H222084   0.437   0.307   4.522  1.1451 -1.0099  2.3275
 7228WAT      O22085   1.902   3.585   0.121 -0.3882 -0.4527  0.5247
 7228WAT     H122086   1.870   3.530   0.193 -1.2249 -0.7032 -0.0193
 7228WAT     H222087   1.939   3.523   0.058 -0.0617 -0.2704  0.5340
 7229WAT      O22088   1.436   1.787   2.789  0.3077  0.3414  0.0067
 7229WAT     H122089   1.350   1.751   2.767 -0.1885  0.7500  1.2305
 7229WAT     H222090   1.480   1.796   2.704 -0.3444 -1.1206 -0.5267
 7230WAT      O22091   2.089   7.145   2.120  0.1849  0.1041 -0.2973
 7230WAT     H122092   2.139   7.064   2.112  0.1454 -0.0176  0.5793
 7230WAT     H222093   2.154   7.215   2.116  0.2903 -0.0026 -0.4208
 7231WAT      O22094   3.780   4.863   0.511 -0.1494 -0.0163  0.1172
 7231WAT     H122095   3.766   4.804   0.585 -0.1289 -0.7341 -0.4436
 7231WAT     H222096   3.876   4.868   0.502 -0.1369  0.5011  0.4688
 7232WAT      O22097   6.643   6.335   5.758  0.2711  0.3183  0.5575
 7232WAT     H122098   6.556   6.326   5.797  0.3976 -0.2434  0.7232
 7232WAT     H222099   6.699   6.277   5.810  0.6670  0.3935  0.2229
 7233WAT      O22100   0.058   4.361   4.205 -0.3168 -0.4279  0.2740
 7233WAT     H122101   0.002   4.438   4.192 -0.6311 -0.6641  0.2218
 7233WAT     H222102   0.049   4.340   4.298  0.3350  0.0319  0.4447
 7234WAT      O22103   6.282   6.909   2.116  0.0206  0.5474 -0.5043
 7234WAT     H122104   6.374   6.918   2.091  0.4708  1.2667  1.2606
 7234WAT     H222105   6.268   6.978   2.180 -1.7125  0.3105 -0.5828
 7235WAT      O22106   3.456   4.341   3.786  0.5146  0.2505 -0.4950
 7235WAT     H122107   3.514   4.411   3.816  0.1908  0.2651  0.1291
 7235WAT     H222108   3.514   4.275   3.750  0.9437  0.1724  0.3029
 7236WAT      O22109   6.690   0.915   1.946 -0.0456  0.2322  0.3596
 7236WAT     H122110   6.701   0.964   1.865 -1.2035  1.5058  0.9284
 7236WAT     H222111   6.595   0.904   1.954 -0.0059  0.7190  1.8644
 7237WAT      O22112   6.813   6.316   0.986 -0.7780 -0.4824 -0.2723
 7237WAT     H122113   6.900   6.277   0.978 -0.7514 -0.5059  0.1369
 7237WAT     H222114   6.757   6.244   1.014 -0.2647  0.2674  3.0486
 7238WAT      O22115   5.157   4.760   0.450  0.0802  0.5570 -0.5111
 7238WAT     H122116   5.225   4.713   0.403  0.8589  2.6355 -1.6126
 7238WAT     H222117   5.204   4.822   0.506 -0.8597 -0.9157  2.1298
 7239WAT      O22118   6.333   3.045   3.969  0.5199 -0.5839 -0.3310
 7239WAT     H122119   6.417   3.090   3.973  1.1476 -1.7762  0.2324
 7239WAT     H222120   6.268   3.114   3.984  1.4938 -0.0077  1.4801
 7240WAT      O22121   0.715   5.559   5.568 -0.1120 -0.1363  0.5372
 7240WAT     H122122   0.638   5.603   5.531 -0.7416 -0.3393  1.5919
 7240WAT     H222123   0.772   5.545   5.492 -0.6677  0.9065 -0.1059
 7241WAT      O22124   4.858   0.713   3.944  0.2014 -0.0368  0.6258
 7241WAT     H122125   4.823   0.661   4.016  3.0676 -0.5266  1.7734
 7241WAT     H222126   4.851   0.803   3.974 -2.4576  0.1886 -0.3387
 7242WAT      O22127   5.935   4.718   1.368 -0.0356 -0.5654  0.0956
 7242WAT     H122128   5.909   4.804   1.402  0.3994 -0.2142 -0.4252
 7242WAT     H222129   6.030   4.714   1.385  0.4077  0.0715 -1.9668
 7243WAT      O22130   2.926   1.060   3.897 -0.1417  0.1831 -0.0469
 7243WAT     H122131   3.003   1.046   3.842 -0.0002  0.1288  0.1625
 7243WAT     H222132   2.957   1.115   3.969  0.9013 -3.3940  2.5510
 7244WAT      O22133   1.596   5.605   3.466 -0.2314  0.0356 -0.4876
 7244WAT     H122134   1.580   5.640   3.554  0.8824 -0.7572  0.0397
 7244WAT     H222135   1.600   5.510   3.477 -0.2270 -0.0908 -1.4304
 7245WAT      O22136   4.773   5.185   4.298 -0.2648  0.7160  0.0566
 7245WAT     H122137   4.773   5.258   4.360 -0.3585 -0.2274  1.1938
 7245WAT     H222138   4.682   5.155   4.296 -0.0340 -0.0168  0.3839
 7246WAT      O22139   3.394   3.312   5.183  0.1039  0.2509 -0.2563
 7246WAT     H122140   3.352   3.386   5.227  3.2798  1.3586  1.2622
 7246WAT     H222141   3.405   3.247   5.252  1.7224  0.4327 -0.3078
 7247WAT      O22142   5.043   6.248   6.209 -0.2218  0.3261  0.3370
 7247WAT     H122143   5.076   6.312   6.146 -1.6602  1.0709  0.2912
 7247WAT     H222144   5.077   6.277   6.294 -0.1245  0.6201  0.1977
 7248WAT      O22145   1.248   3.019   3.472  0.0041 -0.3447  0.0794
 7248WAT     H122146   1.190   3.091   3.498 -0.7856 -0.7922 -0.4086
 7248WAT     H222147   1.284   2.986   3.554 -0.3589 -0.0079  0.3791
 7249WAT      O22148   4.952   3.191   5.319 -0.6848 -0.1668 -0.2770
 7249WAT     H122149   4.910   3.114   5.279  0.1043 -1.1749  0.7638
 7249WAT     H222150   4.890   3.221   5.386 -1.4919  0.8216 -1.4203
 7250WAT      O22151   0.438   5.096   5.025  0.1096 -0.1279 -0.2722
 7250WAT     H122152   0.528   5.124   5.005  0.4200  0.5373  1.7504
 7250WAT     H222153   0.414   5.149   5.101 -1.6509 -1.0003 -0.1860
 7251WAT      O22154   5.350   2.330   5.617  0.3887 -0.4187  0.0242
 7251WAT     H122155   5.314   2.322   5.705 -0.3374 -2.0091 -0.3956
 7251WAT     H222156   5.282   2.376   5.568 -0.4769 -2.0603 -0.3838
 7252WAT      O22157   0.245   0.498   1.145 -0.3276 -0.3451  0.0544
 7252WAT     H122158   0.151   0.494   1.160 -0.5291 -2.0815 -1.3946
 7252WAT     H222159   0.270   0.585   1.176 -2.3792  0.1344  0.5305
 7253WAT      O22160   3.519   6.118   1.310 -0.0996  0.2119  0.3674
 7253WAT     H122161   3.573   6.084   1.239  1.8094  0.1783  1.7654
 7253WAT     H222162   3.481   6.039   1.351  2.7148 -0.2626  2.3455
 7254WAT      O22163   4.838   5.061   0.323  0.1517 -0.2746 -0.4995
 7254WAT     H122164   4.881   4.984   0.285 -0.1618 -0.1160 -1.1902
 7254WAT     H222165   4.880   5.072   0.408  0.3050 -1.1220 -0.4563
 7255WAT      O22166   6.440   5.415   5.694  0.4370 -0.0897 -0.8241
 7255WAT     H122167   6.508   5.450   5.635  0.2598  0.1200 -0.9078
 7255WAT     H222168   6.362   5.408   5.638 -0.0381  1.1662 -0.3577
 7256WAT      O22169   5.397   2.475   0.005  0.1474 -0.0055  0.0610
 7256WAT     H122170   5.402   2.570  -0.005  2.0872 -0.1327 -0.5746
 7256WAT     H222171   5.471   2.441  -0.044 -1.0278 -1.9407 -0.5064
 7257WAT      O22172   5.806   3.389   2.930  0.1796  0.1094  0.4515
 7257WAT     H122173   5.719   3.426   2.914  0.8309  1.1446 -0.9392
 7257WAT     H222174   5.864   3.465   2.935  1.4595 -0.6121 -1.7450
 7258WAT      O22175   3.688   0.761   1.804  0.2308  0.2823 -0.2538
 7258WAT     H122176   3.691   0.719   1.890  0.0988 -1.3092 -0.9858
 7258WAT     H222177   3.780   0.775   1.782  0.2755  0.4360  0.0271
 7259WAT      O22178   6.920   5.079   1.698  0.0287 -0.1355  0.7807
 7259WAT     H122179   6.971   5.050   1.773  0.2283 -0.2864  0.5863
 7259WAT     H222180   6.875   5.157   1.729  1.5980  0.9247  0.4741
 7260WAT      O22181   4.866   1.477   2.447 -0.1219  0.0462  0.0489
 7260WAT     H122182   4.888   1.436   2.364 -0.5748  0.7211 -0.4200
 7260WAT     H222183   4.946   1.471   2.499  0.2160 -0.2406 -0.4924
 7261WAT      O22184   6.931   5.756   5.453 -0.8205  0.8317 -0.2696
 7261WAT     H122185   6.899   5.846   5.458  2.2475  2.0506 -0.6967
 7261WAT     H222186   6.912   5.719   5.539 -0.8399  2.3666  0.4155
 7262WAT      O22187   6.902   3.002   2.458 -0.1131 -0.2721 -0.0108
 7262WAT     H122188   6.985   3.037   2.426 -0.2646 -1.4648 -1.8597
 7262WAT     H222189   6.923   2.965   2.544  1.8182 -2.3189 -1.2496
 7263WAT      O22190   2.269   1.358   0.511 -0.2928  0.2276  0.3432
 7263WAT     H122191   2.315   1.287   0.467 -0.5296  0.4291 -0.2397
 7263WAT     H222192   2.192   1.316   0.549 -0.2305  0.1027  0.3331
 7264WAT      O22193   0.544   1.035   4.114  0.1361  0.4610  0.3630
 7264WAT     H122194   0.482   1.104   4.139 -1.5220 -0.4629 -0.9634
 7264WAT     H222195   0.615   1.082   4.069 -0.8559  1.3540 -0.3291
 7265WAT      O22196   6.961   3.737   3.191 -0.0553  0.2329  0.7015
 7265WAT     H122197   6.994   3.823   3.215 -1.7588  0.8097  1.1311
 7265WAT     H222198   6.871   3.753   3.161 -0.3721 -1.3765  0.6758
 7266WAT      O22199   1.674   3.702   1.227 -0.3059  0.4716  0.2598
 7266WAT     H122200   1.757   3.745   1.245  1.4133 -2.1402 -0.8617
 7266WAT     H222201   1.630   3.697   1.312  0.6238  1.9676  0.8496
 7267WAT      O22202   5.930   2.382   0.311  0.0959  0.4270  0.1595
 7267WAT     H122203   6.023   2.395   0.333 -0.1177  1.4513  0.5087
 7267WAT     H222204   5.901   2.468   0.281 -0.4115 -0.2074 -1.2187
 7268WAT      O22205   4.648   6.451   5.169 -0.6739 -0.1816  0.1628
 7268WAT     H122206   4.666   6.541   5.142 -0.2283  0.6068  2.8689
 7268WAT     H222207   4.567   6.456   5.219 -0.4718 -1.2353  0.6185
 7269WAT      O22208   5.729   5.576   5.594 -0.1509 -0.0443  0.3614
 7269WAT     H122209   5.706   5.547   5.506 -1.2807  1.7740 -0.0058
 7269WAT     H222210   5.738   5.495   5.645  0.0688 -1.1027 -1.2990
 7270WAT      O22211   5.352   6.528   3.862 -0.0275 -0.0781  0.3384
 7270WAT     H122212   5.446   6.509   3.869 -0.2888 -1.3385  0.7827
 7270WAT     H222213   5.344   6.619   3.889  1.3007  0.6898 -1.6249
 7271WAT      O22214   7.251   6.699   4.732  0.2471 -0.0326 -0.0081
 7271WAT     H122215   7.216   6.695   4.821 -0.3157  0.5169 -0.2010
 7271WAT     H222216   7.198   6.765   4.688  1.8750  1.2300 -0.1616
 7272WAT      O22217   3.374   2.542   1.929 -0.0916  0.6453 -0.0752
 7272WAT     H122218   3.396   2.462   1.977  0.1596  0.9071  0.2480
 7272WAT     H222219   3.325   2.511   1.853  1.8940 -0.0042 -1.1527
 7273WAT      O22220   0.873   1.885   4.338  0.3419 -0.4105 -0.6623
 7273WAT     H122221   0.824   1.829   4.397 -0.3190  0.8689  0.0563
 7273WAT     H222222   0.959   1.895   4.379 -0.6976  1.9856  1.1791
 7274WAT      O22223   3.193   0.224   4.598 -0.0418  0.6253 -0.2364
 7274WAT     H122224   3.120   0.205   4.657 -0.7643  1.8362 -0.7129
 7274WAT     H222225   3.154   0.271   4.525  0.7837 -1.1209 -1.8990
 7275WAT      O22226   4.402   6.819   5.508  0.3853 -0.6917  0.1991
 7275WAT     H122227   4.464   6.846   5.576 -0.6153  0.3920  0.7251
 7275WAT     H222228   4.386   6.899   5.457 -1.3384 -0.6572  0.7217
 7276WAT      O22229   5.850   4.087   4.165 -0.0064 -0.0693 -0.1390
 7276WAT     H122230   5.890   4.043   4.240 -1.5706 -0.9732  0.2230
 7276WAT     H222231   5.768   4.124   4.199  1.0003  2.7963 -0.5494
 7277WAT      O22232   6.321   6.553   3.928 -0.1835  0.3548  0.8717
 7277WAT     H122233   6.240   6.559   3.979  0.1496  1.2140  1.3118
 7277WAT     H222234   6.356   6.466   3.949 -1.4867 -0.4525 -0.1029
 7278WAT      O22235   3.143   5.590   3.286  0.7525 -0.3413 -1.0161
 7278WAT     H122236   3.107   5.533   3.219  1.8581 -0.8643 -1.1967
 7278WAT     H222237   3.169   5.669   3.239  0.8795 -0.4215 -1.0807
 7279WAT      O22238   6.510   3.569   5.450 -0.7049  0.2337 -0.0676
 7279WAT     H122239   6.585   3.589   5.506  0.8474 -1.2445 -1.5012
 7279WAT     H222240   6.460   3.504   5.499  0.2910 -0.5829 -0.1032
 7280WAT      O22241   1.019   4.726   0.774 -0.4375 -0.1054  0.3355
 7280WAT     H122242   1.063   4.687   0.849  1.7895  3.1503  0.9346
 7280WAT     H222243   0.989   4.811   0.806 -0.4280  0.9082 -2.1359
 7281WAT      O22244   4.680   6.055   4.044 -0.0560 -0.0687 -0.0084
 7281WAT     H122245   4.603   5.998   4.038 -0.9969  1.1010  0.4829
 7281WAT     H222246   4.648   6.141   4.015  0.6107  0.8501  1.8212
 7282WAT      O22247   6.308   1.629   4.739 -0.5148  0.3907 -0.0262
 7282WAT     H122248   6.360   1.659   4.814 -1.9625  1.6657  0.5268
 7282WAT     H222249   6.352   1.550   4.710  0.8412  0.5738  1.3628
 7283WAT      O22250   0.746   3.890   5.504 -0.1198  0.4891 -0.2986
 7283WAT     H122251   0.742   3.809   5.453 -1.0313 -0.1724  0.7727
 7283WAT     H222252   0.675   3.944   5.468  0.0379  0.5251 -0.5546
 7284WAT      O22253   6.452   6.454   6.068  0.5929  0.2093 -0.1087
 7284WAT     H122254   6.447   6.529   6.127  0.2573 -0.5281  0.8320
 7284WAT     H222255   6.422   6.380   6.121  0.5212 -0.5199 -1.1388
 7285WAT      O22256   7.586   0.838   4.055  0.0700  0.0785  0.2862
 7285WAT     H122257   7.530   0.863   4.128 -0.9316 -0.4952 -0.2538
 7285WAT     H222258   7.674   0.832   4.093 -0.4788 -0.5636  1.5246
 7286WAT      O22259   4.274   0.997   4.423 -0.0647  0.2905  0.1523
 7286WAT     H122260   4.210   0.985   4.493 -0.0285 -0.9983 -0.0143
 7286WAT     H222261   4.345   0.937   4.446  2.3114  3.4020  1.6712
 7287WAT      O22262   4.948   4.342   2.405 -0.8624 -0.2024  0.3041
 7287WAT     H122263   4.916   4.398   2.476 -0.6477  0.3211 -0.0068
 7287WAT     H222264   5.040   4.366   2.395 -0.3950 -1.5523  1.0588
 7288WAT      O22265   4.241   4.059   6.210 -0.5904  0.1922  0.6880
 7288WAT     H122266   4.332   4.088   6.217 -0.7995  0.9020  0.6078
 7288WAT     H222267   4.230   3.995   6.280 -0.2716  0.7544  1.2594
 7289WAT      O22268   0.725   5.823   2.071 -0.2503 -0.0654 -0.0624
 7289WAT     H122269   0.818   5.826   2.048 -0.0737 -1.0444  0.4956
 7289WAT     H222270   0.722   5.778   2.156 -1.1706  0.6408  0.2979
 7290WAT      O22271   1.535   5.957   1.728  0.1339  0.2104  0.3670
 7290WAT     H122272   1.581   5.997   1.654  0.0425 -0.0040  0.1919
 7290WAT     H222273   1.484   6.028   1.766 -0.7784  0.0559 -0.5306
 7291WAT      O22274   4.927   1.265   4.468 -0.1282 -0.1591  0.0485
 7291WAT     H122275   4.858   1.332   4.460 -0.6898 -0.8732 -1.6073
 7291WAT     H222276   4.947   1.261   4.561 -1.2046  1.1935  0.3639
 7292WAT      O22277   3.488   0.390   1.074  0.4455 -0.2357  0.4524
 7292WAT     H122278   3.527   0.386   1.162 -0.9649 -0.5569  1.1046
 7292WAT     H222279   3.426   0.316   1.072  0.5914 -0.3376 -0.8847
 7293WAT      O22280   5.756   1.798   3.952 -0.4469 -0.0138 -0.1075
 7293WAT     H122281   5.731   1.759   4.036  0.4229 -0.0804  0.1299
 7293WAT     H222282   5.786   1.886   3.974  0.4528 -0.2715 -0.2394
 7294WAT      O22283   3.892   5.457   2.743  0.2985 -0.1064 -0.8847
 7294WAT     H122284   3.817   5.415   2.701  0.0827 -1.4281  0.7430
 7294WAT     H222285   3.860   5.544   2.767  0.0589  0.2318 -2.3050
 7295WAT      O22286   5.802   4.371   5.997  0.3783 -0.6757 -0.1952
 7295WAT     H122287   5.734   4.312   5.967  0.8276 -1.3517  0.0855
 7295WAT     H222288   5.881   4.316   6.001  1.4980  0.5831 -2.7349
 7296WAT      O22289   4.548   3.498   5.941 -0.5541 -0.0975 -0.0600
 7296WAT     H122290   4.499   3.579   5.947  1.7514  1.4258 -0.3587
 7296WAT     H222291   4.560   3.470   6.031 -0.9670  0.1656  0.0762
 7297WAT      O22292   0.462   4.787   5.987 -0.9335 -0.5401 -0.1177
 7297WAT     H122293   0.527   4.785   6.058  0.5808 -0.3217 -1.4415
 7297WAT     H222294   0.390   4.733   6.019 -0.4811 -0.1072  1.7516
 7298WAT      O22295   2.489   7.086   2.873 -0.2064 -0.3094 -0.3545
 7298WAT     H122296   2.435   7.053   2.803 -0.4000  0.6903 -0.6926
 7298WAT     H222297   2.579   7.068   2.845 -0.3231 -1.6315  0.0393
 7299WAT      O22298   2.960   6.303   4.818  0.3556  0.3186 -0.1137
 7299WAT     H122299   2.940   6.331   4.907  0.4588 -1.4108  0.4925
 7299WAT     H222300   3.055   6.291   4.817  0.2245 -0.8512 -0.0627
 7300WAT      O22301   5.640   1.003   2.084 -0.0561  0.6438  0.3338
 7300WAT     H122302   5.634   0.959   2.169 -1.9052  0.0737 -0.0493
 7300WAT     H222303   5.729   0.984   2.054 -0.3907 -1.8919  0.7276
 7301WAT      O22304   3.029   1.898   5.379 -0.2843 -0.3039 -0.5088
 7301WAT     H122305   2.982   1.897   5.296  1.9845 -2.9720 -1.9235
 7301WAT     H222306   2.985   1.830   5.431 -0.8211  0.3809 -0.0621
 7302WAT      O22307   0.462   2.692   1.692 -0.2585  0.2785  0.3265
 7302WAT     H122308   0.428   2.781   1.688 -1.9663 -0.3700 -0.3353
 7302WAT     H222309   0.545   2.701   1.739 -1.0114  2.0248  1.4471
 7303WAT      O22310   2.099   1.238   3.334 -0.0939 -0.4262  0.0714
 7303WAT     H122311   2.037   1.167   3.355  1.4620 -1.9978 -0.4217
 7303WAT     H222312   2.126   1.272   3.419 -1.4562  0.1557  0.3009
 7304WAT      O22313   4.927   5.498   3.173  0.2966 -0.3370  0.6326
 7304WAT     H122314   4.985   5.565   3.209 -0.1329  0.8352 -0.7602
 7304WAT     H222315   4.881   5.462   3.250  0.7524  0.7532  1.4406
 7305WAT      O22316   0.148   0.887   5.195 -0.4855  0.0250 -0.0962
 7305WAT     H122317   0.108   0.819   5.249 -0.3329  0.4094  0.5143
 7305WAT     H222318   0.099   0.885   5.113 -1.7122  0.4285  0.6075
 7306WAT      O22319   4.363   0.263   5.160 -0.3481  0.3946  0.2627
 7306WAT     H122320   4.358   0.359   5.170 -2.2234  0.3438  0.2161
 7306WAT     H222321   4.348   0.230   5.248 -1.3857  0.1469  0.0096
 7307WAT      O22322   1.248   1.069   3.208 -0.0166 -0.2085 -0.7730
 7307WAT     H122323   1.245   1.162   3.184 -2.0985  0.2504  0.9047
 7307WAT     H222324   1.259   1.069   3.303 -0.8989 -1.6323 -0.6336
 7308WAT      O22325   1.992   3.239   5.457 -0.6556 -0.3758  0.1898
 7308WAT     H122326   2.020   3.325   5.487 -1.3408 -0.4306  1.0216
 7308WAT     H222327   1.930   3.257   5.386  1.3450 -0.2566 -1.6118
 7309WAT      O22328   3.003   6.234   5.964  0.3403  0.5488 -0.1079
 7309WAT     H122329   3.005   6.141   5.986  1.4135 -0.0298 -2.3877
 7309WAT     H222330   2.932   6.242   5.900  0.3181  1.2911 -0.0025
 7310WAT      O22331   5.074   3.717   1.716 -0.2654 -0.0481 -0.3085
 7310WAT     H122332   5.010   3.742   1.783 -1.9711 -0.5733 -1.6523
 7310WAT     H222333   5.055   3.625   1.698  0.0843  0.1066 -1.5605
 7311WAT      O22334   0.336   4.471   0.058 -0.2634  0.0514  0.4402
 7311WAT     H122335   0.306   4.560   0.078  1.0406  0.4330  0.7616
 7311WAT     H222336   0.430   4.473   0.072  0.0820 -0.8676 -1.4356
 7312WAT      O22337   2.092   0.164   5.212  0.5830  0.2978  0.0314
 7312WAT     H122338   2.179   0.159   5.252  0.8865 -1.0128 -0.7668
 7312WAT     H222339   2.108   0.161   5.118 -0.2669  1.3437 -0.1715
 7313WAT      O22340   4.732   5.308   5.972 -0.1695  0.1907 -0.4050
 7313WAT     H122341   4.647   5.350   5.985 -0.9696 -0.6863 -2.3712
 7313WAT     H222342   4.711   5.219   5.942  1.4508 -0.3213 -0.1284
 7314WAT      O22343   3.532   5.824   1.303  0.8081 -0.3683 -0.4661
 7314WAT     H122344   3.598   5.844   1.369  0.8571 -0.5445 -0.4606
 7314WAT     H222345   3.562   5.869   1.224  1.2757 -0.9625 -0.6419
 7315WAT      O22346   6.119   4.299   3.071  0.5241 -0.8219  0.2518
 7315WAT     H122347   6.165   4.332   3.148 -0.2121  2.6132 -0.6042
 7315WAT     H222348   6.029   4.329   3.083  0.9919  2.8617 -3.2488
 7316WAT      O22349   2.684   6.252   1.030 -0.2329 -0.0358  0.0598
 7316WAT     H122350   2.686   6.305   1.109  0.1247  1.2184 -0.7576
 7316WAT     H222351   2.733   6.173   1.052 -2.1708 -0.8428  1.8340
 7317WAT      O22352   5.147   3.226   4.329  0.3233  0.2528 -0.4758
 7317WAT     H122353   5.121   3.226   4.421 -0.5279  0.2367 -0.7049
 7317WAT     H222354   5.157   3.133   4.307 -1.0082  0.1615 -0.7971
 7318WAT      O22355   1.326   0.490   2.277 -0.1304  0.1168  0.2917
 7318WAT     H122356   1.385   0.565   2.270 -0.5640  0.4565  0.2509
 7318WAT     H222357   1.288   0.497   2.364 -0.0001 -0.1902  0.3774
 7319WAT      O22358   5.908   6.564   4.723 -0.0591  0.1077 -0.7335
 7319WAT     H122359   5.816   6.576   4.701 -0.0454  3.4676  0.5134
 7319WAT     H222360   5.909   6.557   4.819  0.9911  0.4942 -0.7039
 7320WAT      O22361   5.357   1.762   4.768  0.7225 -0.0949 -0.6682
 7320WAT     H122362   5.320   1.721   4.847 -0.0745  1.1740 -0.3557
 7320WAT     H222363   5.370   1.853   4.793 -0.3822  0.5438 -2.2667
 7321WAT      O22364   2.166   2.039   3.698 -0.0682 -0.4095 -0.3746
 7321WAT     H122365   2.233   2.020   3.764 -0.0694 -0.7915 -0.4816
 7321WAT     H222366   2.167   2.134   3.689  1.1091 -0.4655 -1.0393
 7322WAT      O22367   1.257   4.380   5.881  0.5889  0.1322 -0.5235
 7322WAT     H122368   1.350   4.403   5.878  0.4089  0.7957 -1.1845
 7322WAT     H222369   1.231   4.396   5.972  0.7917  1.2780 -0.6526
 7323WAT      O22370   3.271   5.413   4.337 -0.4795 -0.6111  0.3873
 7323WAT     H122371   3.234   5.346   4.394  1.6122 -1.3084  1.0132
 7323WAT     H222372   3.297   5.484   4.397  0.3939 -0.7189  0.1530
 7324WAT      O22373   7.653   4.462   2.186  1.0624  0.4321  0.0977
 7324WAT     H122374   7.673   4.448   2.279  0.6891  0.9597  0.2591
 7324WAT     H222375   7.603   4.543   2.184  0.3300 -0.0178 -0.4716
 7325WAT      O22376   3.718   6.899   3.732 -0.5264 -0.0858  0.1557
 7325WAT     H122377   3.664   6.845   3.790 -0.2626 -0.9555 -0.3992
 7325WAT     H222378   3.727   6.982   3.780  2.2254 -1.7315  2.8556
 7326WAT      O22379   4.722   5.891   1.503  0.0072  0.4205  0.6614
 7326WAT     H122380   4.689   5.802   1.520 -0.0185  0.2076 -0.4278
 7326WAT     H222381   4.813   5.889   1.531  0.0451  0.0030  0.5184
 7327WAT      O22382   3.493   5.747   5.972 -0.0789 -0.1662  0.2608
 7327WAT     H122383   3.513   5.770   6.062 -0.5693 -0.1069  0.3546
 7327WAT     H222384   3.416   5.799   5.949  1.6071  1.9321 -1.0950
 7328WAT      O22385   0.778   0.075   1.143 -0.2727  0.3037 -0.1605
 7328WAT     H122386   0.733   0.148   1.099 -0.3378 -0.4482 -1.3959
 7328WAT     H222387   0.867   0.107   1.158  0.8448 -0.4744 -3.9458
 7329WAT      O22388   0.469   6.604   5.681  0.6981  0.1457 -0.2231
 7329WAT     H122389   0.521   6.525   5.697 -0.0292  0.0775  2.3098
 7329WAT     H222390   0.380   6.579   5.705  0.4238  1.6620  0.4741
 7330WAT      O22391   4.071   2.412   0.766  0.0725  0.3986  0.3642
 7330WAT     H122392   4.125   2.429   0.690  0.0707  0.7687  0.4416
 7330WAT     H222393   4.054   2.499   0.804  0.7952  0.1589  1.2800
 7331WAT      O22394   4.768   5.124   0.800 -0.5977  0.1498  0.1130
 7331WAT     H122395   4.773   5.080   0.715 -0.4823 -0.4910  0.4403
 7331WAT     H222396   4.786   5.054   0.864 -0.1567  0.7267  0.6347
 7332WAT      O22397   6.357   6.778   1.548 -0.4281 -0.4277  0.0289
 7332WAT     H122398   6.394   6.783   1.637 -1.7616  0.9177  0.5571
 7332WAT     H222399   6.373   6.688   1.520  2.0472 -0.2671  0.7118
 7333WAT      O22400   5.221   1.911   4.508  0.3946  0.2167  0.6754
 7333WAT     H122401   5.164   1.939   4.579 -0.5286  0.3031 -0.0782
 7333WAT     H222402   5.294   1.973   4.510 -1.3309  2.4471 -0.6057
 7334WAT      O22403   5.819   5.175   4.224 -0.3747 -0.3499 -0.2708
 7334WAT     H122404   5.803   5.262   4.260 -1.9911  0.1218 -1.9438
 7334WAT     H222405   5.910   5.156   4.247 -0.8712  0.4006  2.8319
 7335WAT      O22406   1.440   2.735   3.129 -0.6024 -0.1602  0.0239
 7335WAT     H122407   1.437   2.748   3.224 -3.6574  3.3112 -0.3406
 7335WAT     H222408   1.377   2.664   3.113 -2.0930  1.0215  0.4688
 7336WAT      O22409   4.839   3.222   2.609  1.3362  0.5558 -0.4850
 7336WAT     H122410   4.813   3.244   2.698 -0.7932 -2.3308 -0.2654
 7336WAT     H222411   4.832   3.305   2.561  1.0407  1.8448  1.6549
 7337WAT      O22412   5.829   0.495   1.847  0.0138  0.2062  0.5521
 7337WAT     H122413   5.859   0.416   1.804  0.3557  0.1313  0.9226
 7337WAT     H222414   5.847   0.480   1.940 -1.5915 -0.0436  0.8643
 7338WAT      O22415   6.945   2.314   4.810  0.5450  0.2676  0.8161
 7338WAT     H122416   6.852   2.330   4.828  0.2947  2.9463 -2.0275
 7338WAT     H222417   6.991   2.350   4.886 -0.6585 -0.4472  1.9338
 7339WAT      O22418   1.808   3.878   3.049 -0.5562  0.7004  0.2474
 7339WAT     H122419   1.726   3.857   3.094 -0.8295 -1.2314 -1.0238
 7339WAT     H222420   1.875   3.871   3.117 -1.1228 -0.7405  0.7052
 7340WAT      O22421   6.857   2.530   0.013 -0.0478  0.0918 -0.2981
 7340WAT     H122422   6.809   2.612   0.025  2.6761  1.9464 -0.9869
 7340WAT     H222423   6.872   2.498   0.102 -1.5685  0.0284 -0.0412
 7341WAT      O22424   1.822   5.108   2.237  0.4639 -0.1644 -0.3973
 7341WAT     H122425   1.751   5.074   2.183 -0.0628  0.2362  0.0282
 7341WAT     H222426   1.898   5.106   2.180 -0.4236  1.9084 -1.7578
 7342WAT      O22427   6.597   5.625   5.037 -0.3101 -0.0206 -0.0628
 7342WAT     H122428   6.647   5.548   5.013  1.7152  0.4352  2.2588
 7342WAT     H222429   6.509   5.592   5.055  0.4521 -1.7903  0.6696
 7343WAT      O22430   1.002   6.363   2.402  0.2913  0.1776 -0.4240
 7343WAT     H122431   1.018   6.416   2.479 -1.5672  0.7376 -0.3680
 7343WAT     H222432   1.060   6.288   2.411  0.1542  0.2643  1.4909
 7344WAT      O22433   0.648   0.686   3.606  0.0940  0.0654 -0.4894
 7344WAT     H122434   0.722   0.665   3.663 -0.7465  0.9631  1.0195
 7344WAT     H222435   0.684   0.743   3.539  1.0232 -0.6501 -0.6234
 7345WAT      O22436   5.437   0.415   2.123 -0.0028  0.6979 -0.3106
 7345WAT     H122437   5.356   0.363   2.130 -0.1107  0.9703  0.6607
 7345WAT     H222438   5.504   0.351   2.099 -0.0978  0.0385  1.0593
 7346WAT      O22439   1.224   1.845   3.788  0.5674  0.5113 -0.0016
 7346WAT     H122440   1.303   1.843   3.842  0.3828  2.4321  0.4199
 7346WAT     H222441   1.221   1.934   3.753 -0.4875 -0.0481 -1.4453
 7347WAT      O22442   7.593   0.669   4.593  0.1882  0.4149 -0.2375
 7347WAT     H122443   7.520   0.617   4.625  0.3270 -0.2619 -1.0068
 7347WAT     H222444   7.667   0.641   4.648  0.1830  0.0654 -0.4071
 7348WAT      O22445   3.460   2.176   2.267  0.0251  0.0171 -0.4696
 7348WAT     H122446   3.463   2.082   2.282 -1.0471  0.0846  0.3558
 7348WAT     H222447   3.465   2.214   2.355 -1.7253  0.6241 -0.5871
 7349WAT      O22448   5.885   6.361   2.088  0.5164  0.0744  0.1509
 7349WAT     H122449   5.844   6.290   2.136 -1.5118  0.5074 -0.8298
 7349WAT     H222450   5.938   6.407   2.153 -0.4498 -0.6220  1.4617
 7350WAT      O22451   4.266   0.200   4.499 -0.0615 -0.2124  0.1356
 7350WAT     H122452   4.334   0.138   4.526  0.7434  1.1859  1.5833
 7350WAT     H222453   4.230   0.232   4.582  0.0887  1.7625 -0.4946
 7351WAT      O22454   1.578   3.856   1.944  0.1701  0.5653  0.7149
 7351WAT     H122455   1.632   3.882   2.018 -0.4293  2.4566  0.5233
 7351WAT     H222456   1.637   3.861   1.869  0.2947  0.4137  0.7991
 7352WAT      O22457   4.327   1.780   5.030  0.2498  0.4497  0.8495
 7352WAT     H122458   4.290   1.735   4.955  0.1325  0.0641  1.1312
 7352WAT     H222459   4.394   1.720   5.063  1.9062  1.5904 -0.2874
 7353WAT      O22460   7.196   4.846   3.569 -0.7577  0.2801  0.2986
 7353WAT     H122461   7.213   4.755   3.546  1.0886  0.2500  1.5944
 7353WAT     H222462   7.154   4.883   3.491  2.1145 -0.6519 -1.8789
 7354WAT      O22463   5.843   3.831   4.738 -0.3521 -0.1677 -0.1057
 7354WAT     H122464   5.908   3.796   4.677 -0.3029  0.4246 -0.4053
 7354WAT     H222465   5.763   3.783   4.718  0.2335 -1.6274  0.9604
 7355WAT      O22466   3.547   2.489   4.800 -0.2231  0.5810 -0.1296
 7355WAT     H122467   3.554   2.549   4.725 -0.4105 -0.0547 -0.6635
 7355WAT     H222468   3.535   2.546   4.876  0.6021  1.2690 -0.4987
 7356WAT      O22469   0.926   6.061   4.803 -0.3473 -0.3834 -0.2172
 7356WAT     H122470   0.948   5.986   4.857  0.0439 -0.3017 -0.2643
 7356WAT     H222471   0.891   6.126   4.864 -0.5671 -0.5523 -0.1611
 7357WAT      O22472   1.048   3.432   2.056  0.9048 -0.2128  0.2098
 7357WAT     H122473   0.961   3.458   2.087  1.2824  1.1881  0.1323
 7357WAT     H222474   1.109   3.478   2.112  1.5945  0.3520 -0.9616
 7358WAT      O22475   6.193   4.739   1.458 -0.2178  0.4876 -0.2742
 7358WAT     H122476   6.222   4.655   1.494  1.2579  0.1010 -2.1531
 7358WAT     H222477   6.243   4.805   1.506  0.0959  0.1462 -0.1273
 7359WAT      O22478   3.649   0.942   0.391  0.0048  0.2891  0.0302
 7359WAT     H122479   3.567   0.931   0.343  0.2149 -1.2322 -0.0341
 7359WAT     H222480   3.713   0.969   0.325  0.0587 -0.7975 -0.3890
 7360WAT      O22481   0.270   5.972   5.840 -0.9812  0.2355 -0.1345
 7360WAT     H122482   0.326   5.907   5.881  0.4134  1.1417 -0.5284
 7360WAT     H222483   0.226   6.015   5.913  0.7577  1.1832  0.4200
 7361WAT      O22484   5.654   5.199   2.259  0.5244  0.4862  0.0522
 7361WAT     H122485   5.586   5.230   2.198  0.2675  0.2941  0.2414
 7361WAT     H222486   5.697   5.280   2.289  0.6160  0.5845 -0.3411
 7362WAT      O22487   6.427   3.032   0.614  0.1680  0.5083  0.3208
 7362WAT     H122488   6.377   2.956   0.645  3.4105 -1.3635  1.3505
 7362WAT     H222489   6.478   3.060   0.690  0.9329  2.1572 -0.7378
 7363WAT      O22490   5.563   0.411   0.055 -0.1522 -0.3700  0.4618
 7363WAT     H122491   5.542   0.494   0.012 -0.1723 -0.5642  0.0932
 7363WAT     H222492   5.478   0.370   0.070 -0.0816 -0.8652 -0.4470
 7364WAT      O22493   6.341   7.204   2.816  0.1837  0.4380  0.3555
 7364WAT     H122494   6.426   7.185   2.778  0.3015  2.3489 -0.4089
 7364WAT     H222495   6.359   7.225   2.908  0.0951 -2.4101  1.1258
 7365WAT      O22496   5.290   7.168   4.393 -0.3320  0.5000 -0.4405
 7365WAT     H122497   5.196   7.182   4.378 -0.3044  1.8973  0.5320
 7365WAT     H222498   5.297   7.152   4.487  0.4312  0.6019 -0.4759
 7366WAT      O22499   6.248   5.799   2.615 -0.2621  0.2861  0.0045
 7366WAT     H122500   6.295   5.850   2.681 -0.0738  1.8215 -1.2536
 7366WAT     H222501   6.280   5.833   2.532 -1.1501 -0.9776 -0.8842
 7367WAT      O22502   4.495   2.147   5.293  0.5652 -0.2237 -0.1170
 7367WAT     H122503   4.564   2.167   5.230  0.5425  0.2503  0.0051
 7367WAT     H222504   4.537   2.160   5.379  0.3434 -0.0067 -0.0426
 7368WAT      O22505   7.608   5.885   5.281 -0.4309 -0.0736 -0.4821
 7368WAT     H122506   7.551   5.959   5.260  1.4545  1.4912 -0.3398
 7368WAT     H222507   7.548   5.812   5.292 -2.3646  1.3617 -0.8690
 7369WAT      O22508   5.142   6.273   1.961 -0.3805  0.3262  0.2777
 7369WAT     H122509   5.160   6.348   2.017 -0.5716  0.2811  0.4022
 7369WAT     H222510   5.052   6.248   1.982 -0.0855 -0.3785  0.7645
 7370WAT      O22511   7.224   6.472   3.197 -0.1037 -0.5395  0.1040
 7370WAT     H122512   7.155   6.530   3.164  0.3314  0.0894  0.2767
 7370WAT     H222513   7.184   6.427   3.271 -0.6280 -0.8939 -0.3828
 7371WAT      O22514   7.642   6.241   1.278  0.3144 -0.2581 -0.2888
 7371WAT     H122515   7.672   6.179   1.212 -0.4205  1.2102 -2.1023
 7371WAT     H222516   7.591   6.306   1.229  0.4681  1.4066  1.5938
 7372WAT      O22517   6.942   0.287   4.260  0.1802  0.1042  0.1631
 7372WAT     H122518   6.981   0.368   4.228  0.9061 -0.1213  0.4542
 7372WAT     H222519   6.857   0.282   4.217  0.6068  0.4374 -0.7434
 7373WAT      O22520   5.018   1.772   5.477  0.1339  0.1344 -0.3557
 7373WAT     H122521   4.999   1.866   5.476  2.2337  0.6214 -1.0538
 7373WAT     H222522   5.038   1.753   5.569 -1.2863  0.1132 -0.0312
 7374WAT      O22523   3.066   5.329   3.909  0.1975  0.2967 -0.1628
 7374WAT     H122524   3.060   5.409   3.962 -0.6910 -0.4047  0.8442
 7374WAT     H222525   3.139   5.345   3.849  0.0703  1.8377  0.0573
 7375WAT      O22526   3.809   3.853   2.228 -0.4898  0.0210  0.3767
 7375WAT     H122527   3.861   3.869   2.307 -1.0869 -0.7536  0.9489
 7375WAT     H222528   3.724   3.893   2.248  0.1502  2.2484 -0.9751
 7376WAT      O22529   4.787   2.940   6.141 -0.6360  0.2682 -0.2858
 7376WAT     H122530   4.781   2.856   6.095 -1.1034  0.9264 -1.4733
 7376WAT     H222531   4.770   2.918   6.232  2.7466 -1.4665  0.0778
 7377WAT      O22532   1.666   3.031   5.373  0.4849  0.2353 -0.0936
 7377WAT     H122533   1.663   3.091   5.447 -0.4038 -0.9951  0.9085
 7377WAT     H222534   1.598   2.966   5.392 -1.3096  1.0470 -3.0129
 7378WAT      O22535   6.563   3.341   2.192 -0.3868  0.2792 -0.2108
 7378WAT     H122536   6.546   3.247   2.192 -0.7369  0.2755  2.3745
 7378WAT     H222537   6.477   3.380   2.176 -0.8555  0.1401  1.7361
 7379WAT      O22538   7.318   0.812   4.741  0.1749  0.1140  0.4995
 7379WAT     H122539   7.356   0.855   4.664 -0.1569  0.7436  0.6719
 7379WAT     H222540   7.393   0.782   4.792  0.3875 -1.1909 -0.5439
 7380WAT      O22541   0.664   7.126   1.163 -0.1133 -0.0206 -0.1595
 7380WAT     H122542   0.614   7.137   1.244  0.1528 -2.4154  0.3916
 7380WAT     H222543   0.755   7.122   1.191  0.0891  0.4253 -0.7348
 7381WAT      O22544   4.556   3.292   2.928 -0.5379 -0.1309  0.1170
 7381WAT     H122545   4.512   3.317   3.010 -1.4529 -3.5538  0.8446
 7381WAT     H222546   4.486   3.288   2.863 -0.3692 -0.4191 -0.0513
 7382WAT      O22547   2.898   2.273   1.742 -0.3218  0.1870  0.6222
 7382WAT     H122548   2.914   2.285   1.648 -1.0380  1.8490  0.6700
 7382WAT     H222549   2.971   2.221   1.773 -0.1619 -0.5340 -0.8922
 7383WAT      O22550   3.942   0.287   0.428 -0.6777 -0.2729  0.2022
 7383WAT     H122551   3.923   0.361   0.486 -0.3632 -1.3010  1.6431
 7383WAT     H222552   3.878   0.297   0.357 -0.7078  1.3162  0.4069
 7384WAT      O22553   4.797   3.352   2.841 -0.1694 -0.3208  0.1372
 7384WAT     H122554   4.734   3.318   2.904 -0.4342 -0.9308 -0.4447
 7384WAT     H222555   4.757   3.432   2.807 -0.3943 -0.4261  0.1551
 7385WAT      O22556   0.631   5.410   1.360  0.4345 -0.3993 -0.3780
 7385WAT     H122557   0.540   5.441   1.362  0.3243 -0.7389  0.2240
 7385WAT     H222558   0.665   5.430   1.447  0.9541 -0.2267 -0.6214
 7386WAT      O22559   4.119   6.123   5.545 -0.3570  0.7018  0.5653
 7386WAT     H122560   4.059   6.175   5.598 -1.7449 -0.2312 -0.0559
 7386WAT     H222561   4.177   6.081   5.609 -1.1331  0.6553  1.2487
 7387WAT      O22562   7.138   3.509   0.477  0.5509  0.7534 -0.1155
 7387WAT     H122563   7.091   3.536   0.398 -0.3392  0.4970  0.3154
 7387WAT     H222564   7.095   3.556   0.548 -0.5503 -1.1451  0.5583
 7388WAT      O22565   0.822   5.071   3.757  0.5296 -0.1520  0.2343
 7388WAT     H122566   0.835   5.143   3.818 -0.4951 -1.3494  1.9452
 7388WAT     H222567   0.754   5.017   3.797  0.8425 -1.7664 -1.2785
 7389WAT      O22568   4.135   4.821   0.731  0.3206 -0.2366  0.8524
 7389WAT     H122569   4.224   4.820   0.766  1.1699  2.8983 -0.8400
 7389WAT     H222570   4.115   4.914   0.720 -2.3276 -0.9183 -0.8978
 7390WAT      O22571   5.400   4.620   0.403  0.1818  0.3923 -0.0317
 7390WAT     H122572   5.492   4.643   0.415  0.5332 -2.0694  3.3383
 7390WAT     H222573   5.401   4.559   0.328  1.4319 -0.1636  0.4030
 7391WAT      O22574   2.547   0.403   1.125  0.7267 -0.2642  0.6972
 7391WAT     H122575   2.543   0.369   1.036 -0.1038 -0.9981  1.0071
 7391WAT     H222576   2.605   0.343   1.171 -0.3446 -0.9984  1.1180
 7392WAT      O22577   7.088   2.875   6.034  0.5936  0.5551 -0.0730
 7392WAT     H122578   7.017   2.813   6.015  0.0780  1.3026 -0.6400
 7392WAT     H222579   7.060   2.919   6.114  1.4985 -0.7047  0.9938
 7393WAT      O22580   5.734   3.749   4.442 -0.1919 -0.4807 -0.3856
 7393WAT     H122581   5.690   3.831   4.424  0.7200  0.1607  0.2306
 7393WAT     H222582   5.684   3.709   4.513  1.2522  1.1533  1.6637
 7394WAT      O22583   2.775   0.627   5.822  0.3974 -0.9385  0.1460
 7394WAT     H122584   2.812   0.664   5.902  0.3567  0.8760 -0.6132
 7394WAT     H222585   2.841   0.565   5.791  1.4025 -0.0562  0.4542
 7395WAT      O22586   1.718   1.204   3.239  0.3461 -0.8951  0.1260
 7395WAT     H122587   1.664   1.175   3.313 -1.7384 -0.9862 -1.3436
 7395WAT     H222588   1.747   1.292   3.264 -0.4399 -0.8731  1.0152
 7396WAT      O22589   0.828   2.900   2.045 -0.1867 -0.3765  0.2860
 7396WAT     H122590   0.811   2.902   2.140  2.3586 -0.5622  0.8037
 7396WAT     H222591   0.870   2.984   2.027  1.9903 -1.4775 -0.0671
 7397WAT      O22592   3.471   3.724   5.331 -0.3125 -0.7427  0.2667
 7397WAT     H122593   3.435   3.681   5.409 -3.1235  0.4887 -0.2263
 7397WAT     H222594   3.534   3.787   5.366 -0.9223 -0.7721  1.4939
 7398WAT      O22595   1.852   3.178   2.475  0.2806 -0.3297  0.0324
 7398WAT     H122596   1.758   3.178   2.462 -0.0768 -1.3333  2.1680
 7398WAT     H222597   1.864   3.161   2.569  2.5879 -0.4128 -0.2017
 7399WAT      O22598   4.410   6.007   5.317  0.5068  0.1459  0.2337
 7399WAT     H122599   4.420   6.057   5.397  0.0531 -1.6546  1.4872
 7399WAT     H222600   4.318   5.979   5.318  0.2006  0.9602 -1.4832
 7400WAT      O22601   3.085   0.773   1.673 -0.0896 -0.1997 -0.3660
 7400WAT     H122602   2.990   0.778   1.673 -0.0680  0.2304 -0.9486
 7400WAT     H222603   3.105   0.688   1.632 -0.2351 -0.7342  0.6410
 7401WAT      O22604   2.741   4.219   3.535 -0.1150  0.3123  0.4031
 7401WAT     H122605   2.743   4.124   3.543 -1.5111  0.3146  0.9528
 7401WAT     H222606   2.706   4.235   3.447  1.1400  0.3445 -0.1208
 7402WAT      O22607   3.962   1.312   5.429  0.3583 -0.3027  0.5067
 7402WAT     H122608   3.931   1.301   5.519  0.2089  0.8568  0.6149
 7402WAT     H222609   3.887   1.346   5.381  0.1575 -1.8126 -0.2980
 7403WAT      O22610   3.084   1.796   2.445 -0.1191  0.1007 -0.4955
 7403WAT     H122611   3.035   1.764   2.521 -0.9299  0.1973 -0.9642
 7403WAT     H222612   3.098   1.889   2.463 -1.4231  0.4191 -1.0233
 7404WAT      O22613   4.090   1.920   2.248  0.2355 -0.0279 -0.2997
 7404WAT     H122614   4.175   1.887   2.220 -0.1113 -0.8055 -0.4531
 7404WAT     H222615   4.046   1.844   2.286  0.0626  0.6390  0.8656
 7405WAT      O22616   2.728   2.312   2.709  0.3993 -0.1192  0.0062
 7405WAT     H122617   2.762   2.227   2.736 -0.2862 -0.5131 -0.3483
 7405WAT     H222618   2.691   2.350   2.789 -0.2855 -0.6391 -0.0550
 7406WAT      O22619   5.164   6.741   5.961 -0.0213 -0.4765 -0.1276
 7406WAT     H122620   5.257   6.749   5.942 -0.2820  0.9400 -0.9855
 7406WAT     H222621   5.153   6.788   6.043  0.2331 -1.9251  0.7673
 7407WAT      O22622   1.623   0.160   4.705 -0.7363  0.5008  0.1744
 7407WAT     H122623   1.542   0.201   4.674 -0.4685  1.3704  0.5977
 7407WAT     H222624   1.680   0.161   4.628 -1.1167 -0.1307 -0.1313
 7408WAT      O22625   3.291   6.621   2.725 -0.6770 -0.7459  0.3861
 7408WAT     H122626   3.221   6.562   2.752  0.1967 -1.7402  0.5056
 7408WAT     H222627   3.341   6.573   2.660 -0.5748  0.2623 -0.3094
 7409WAT      O22628   1.499   1.362   5.992  0.3289 -0.6853 -0.3267
 7409WAT     H122629   1.443   1.382   5.917  1.3719  1.4493 -0.6225
 7409WAT     H222630   1.581   1.334   5.953  0.4191 -0.9399  0.0447
 7410WAT      O22631   5.192   5.192   5.092 -0.1894 -0.1421  0.0247
 7410WAT     H122632   5.170   5.285   5.090 -0.5100 -0.1791  1.0498
 7410WAT     H222633   5.142   5.157   5.166  0.3561 -1.0176 -0.0025
 7411WAT      O22634   5.016   0.743   1.426  1.0223  0.1760 -0.1744
 7411WAT     H122635   4.968   0.797   1.488  1.1385  0.9048 -0.7139
 7411WAT     H222636   5.058   0.676   1.480 -0.0472 -0.0658  0.3727
 7412WAT      O22637   1.345   5.550   2.925  0.4405 -0.5316  0.4204
 7412WAT     H122638   1.365   5.477   2.867  0.9972 -0.2997  0.3199
 7412WAT     H222639   1.394   5.624   2.889 -1.0958  0.2176 -0.2124
 7413WAT      O22640   1.306   7.116   0.561  0.1167 -0.6938  0.7147
 7413WAT     H122641   1.329   7.137   0.470  1.4728  1.3443  1.4576
 7413WAT     H222642   1.224   7.068   0.554  0.2267 -0.6688 -1.5967
 7414WAT      O22643   4.527   3.881   5.215 -0.0433 -0.6925  0.2307
 7414WAT     H122644   4.573   3.836   5.144  2.0799  1.9358 -0.2158
 7414WAT     H222645   4.434   3.862   5.199  0.4007 -0.7583 -2.8472
 7415WAT      O22646   0.442   0.347   0.158  0.0404 -0.3174 -0.1641
 7415WAT     H122647   0.381   0.274   0.161 -2.2978  1.4450  4.1408
 7415WAT     H222648   0.495   0.338   0.237  0.1269  2.1932  0.1613
 7416WAT      O22649   0.821   4.271   3.141 -0.4267  0.2899  0.4718
 7416WAT     H122650   0.886   4.242   3.205  0.0093 -0.5020 -0.3082
 7416WAT     H222651   0.736   4.254   3.183 -0.1482  0.2871  1.0449
 7417WAT      O22652   1.502   3.718   1.455 -0.7325  0.3894 -0.0813
 7417WAT     H122653   1.413   3.696   1.427 -0.6203 -2.3885  1.3930
 7417WAT     H222654   1.516   3.666   1.535  1.9088  1.3995  0.2259
 7418WAT      O22655   0.412   6.445   4.333  0.0149 -0.4542 -0.1695
 7418WAT     H122656   0.463   6.371   4.365  1.2060  0.6524  0.5796
 7418WAT     H222657   0.332   6.444   4.385  0.0012 -1.2211 -0.1945
 7419WAT      O22658   3.109   4.907   2.192 -0.3187 -0.2694  0.0983
 7419WAT     H122659   3.148   4.933   2.275 -0.4180  0.8277 -0.1778
 7419WAT     H222660   3.028   4.863   2.217  0.2248 -0.9925  0.6140
 7420WAT      O22661   2.283   1.134   1.335 -0.0259  0.3084 -0.0543
 7420WAT     H122662   2.369   1.135   1.293 -0.9445  0.9771 -2.0618
 7420WAT     H222663   2.293   1.190   1.413  1.5240 -0.2553  0.1779
 7421WAT      O22664   5.667   0.846   2.903 -0.1657  0.1239 -0.2218
 7421WAT     H122665   5.688   0.858   2.810 -0.2187  0.1052 -0.2359
 7421WAT     H222666   5.750   0.862   2.948  0.8210 -3.3622 -0.5204
 7422WAT      O22667   5.050   5.934   5.396 -0.1706  0.5541 -0.4535
 7422WAT     H122668   5.033   5.880   5.473  1.0691  1.3251  0.4091
 7422WAT     H222669   4.998   6.013   5.411 -0.1657  0.5784 -0.5615
 7423WAT      O22670   0.181   5.694   3.465 -0.0738 -0.1896  0.2774
 7423WAT     H122671   0.237   5.663   3.537 -2.2064 -2.2525  1.2071
 7423WAT     H222672   0.233   5.678   3.386  1.1572 -0.8145  1.1689
 7424WAT      O22673   6.094   3.678   4.576 -0.1471  0.9548 -0.8393
 7424WAT     H122674   6.160   3.744   4.553  0.4615 -0.0915 -2.2862
 7424WAT     H222675   6.094   3.676   4.672  1.3457  1.5596 -0.8002
 7425WAT      O22676   6.442   5.042   3.492 -0.1375 -0.1098 -0.6705
 7425WAT     H122677   6.535   5.041   3.513 -0.1877  0.8690 -0.3282
 7425WAT     H222678   6.407   4.964   3.535  0.3302  0.1554  0.2367
 7426WAT      O22679   3.241   6.528   0.401  0.5211 -0.2867  0.1708
 7426WAT     H122680   3.202   6.456   0.451 -0.1134 -1.1447 -1.4734
 7426WAT     H222681   3.242   6.602   0.462  0.1383 -1.3723  1.5551
 7427WAT      O22682   7.586   0.608   1.620 -0.0025 -0.1372 -0.3553
 7427WAT     H122683   7.516   0.609   1.555  1.6112 -2.7533 -2.3541
 7427WAT     H222684   7.659   0.651   1.577  0.1609  1.0471  1.0529
 7428WAT      O22685   6.362   6.778   3.456  0.6220 -0.0487  0.7586
 7428WAT     H122686   6.370   6.821   3.542  0.4644 -1.0979  1.3075
 7428WAT     H222687   6.409   6.696   3.465 -0.4022 -0.7204  0.2103
 7429WAT      O22688   6.692   5.045   6.122 -0.5138  0.3624 -0.5504
 7429WAT     H122689   6.759   4.978   6.106 -0.4057  0.6157 -1.2187
 7429WAT     H222690   6.727   5.097   6.194 -0.0951  0.3510 -0.7421
 7430WAT      O22691   5.471   0.399   0.676 -0.1876 -0.3360 -0.2679
 7430WAT     H122692   5.484   0.406   0.582  1.9242 -0.1275 -0.0051
 7430WAT     H222693   5.419   0.319   0.687 -0.8183 -0.1379 -1.6064
 7431WAT      O22694   7.268   1.849   6.242  0.3833 -0.2176  0.6664
 7431WAT     H122695   7.341   1.805   6.286  0.9287  0.7411  0.7500
 7431WAT     H222696   7.257   1.802   6.160  0.3829 -1.0464  1.1282
 7432WAT      O22697   0.951   5.910   3.591  0.6115  0.2495 -0.6697
 7432WAT     H122698   0.909   5.845   3.535 -0.9989 -0.4621  1.2266
 7432WAT     H222699   0.950   5.990   3.540 -0.1188 -0.5274 -1.9292
 7433WAT      O22700   6.763   2.392   5.623  0.5000  0.3176 -0.3946
 7433WAT     H122701   6.686   2.388   5.565  0.0476  1.1512  0.1365
 7433WAT     H222702   6.751   2.472   5.673  0.0811 -1.1484  1.9724
 7434WAT      O22703   0.529   7.013   5.168  0.4191  0.2137 -0.4304
 7434WAT     H122704   0.544   6.991   5.260  2.4306 -0.6923 -0.9145
 7434WAT     H222705   0.613   7.045   5.137  0.0138 -0.2747 -2.1565
 7435WAT      O22706   6.216   0.400   1.686 -0.4928  0.3303  0.1063
 7435WAT     H122707   6.309   0.378   1.683 -0.4535  0.4554  0.4715
 7435WAT     H222708   6.206   0.454   1.764 -0.7559  0.8658 -0.2961
 7436WAT      O22709   0.714   2.421   4.562  0.1672 -0.5319 -0.0206
 7436WAT     H122710   0.760   2.502   4.538 -2.2439  1.4926  1.6744
 7436WAT     H222711   0.707   2.425   4.658 -1.1818 -2.0658 -0.0189
 7437WAT      O22712   3.631   6.601   0.308 -0.3421 -0.4077  0.0469
 7437WAT     H122713   3.633   6.553   0.391 -0.7782  0.5328  0.6110
 7437WAT     H222714   3.562   6.666   0.319  2.7810  3.0738  0.8268
 7438WAT      O22715   3.119   6.313   0.553 -0.2667 -0.4574 -0.2321
 7438WAT     H122716   3.167   6.231   0.553 -0.2992 -0.4793 -0.7025
 7438WAT     H222717   3.037   6.293   0.508  0.4756  0.2520 -1.9737
 7439WAT      O22718   5.634   2.736   5.620  0.4504 -0.2285 -1.1785
 7439WAT     H122719   5.641   2.643   5.598  1.2157 -0.3500 -0.4365
 7439WAT     H222720   5.544   2.745   5.653  0.7204 -0.9418 -0.1915
 7440WAT      O22721   1.103   0.596   4.656 -0.2606 -0.2728 -0.1231
 7440WAT     H122722   1.031   0.636   4.607 -0.0996 -0.4123 -0.4783
 7440WAT     H222723   1.181   0.643   4.626 -0.2513  0.1719  0.5794
 7441WAT      O22724   1.540   6.012   2.945 -1.3710 -0.2779  0.8754
 7441WAT     H122725   1.541   5.920   2.969 -1.6522 -0.4547  0.2517
 7441WAT     H222726   1.514   6.058   3.024  0.1274 -0.5952  1.5881
 7442WAT      O22727   4.839   6.483   3.647  0.1180 -0.0452 -0.4626
 7442WAT     H122728   4.864   6.570   3.677 -0.3532  0.9903 -2.8092
 7442WAT     H222729   4.883   6.473   3.562  0.0199 -2.0354 -0.3415
 7443WAT      O22730   6.974   4.877   2.792  0.4441  0.7990  0.0883
 7443WAT     H122731   7.057   4.856   2.749 -0.6751 -2.2713 -0.8648
 7443WAT     H222732   6.965   4.811   2.861 -1.3559  0.8211 -0.0789
 7444WAT      O22733   6.346   3.169   3.584 -0.2987 -0.3940 -0.8160
 7444WAT     H122734   6.331   3.079   3.615  2.8134 -1.0316 -0.8255
 7444WAT     H222735   6.291   3.223   3.639 -0.0713 -2.0985  1.1985
 7445WAT      O22736   2.594   6.417   0.839  0.0528 -0.3364 -0.5921
 7445WAT     H122737   2.624   6.341   0.888  1.0871  0.5697  0.2605
 7445WAT     H222738   2.665   6.435   0.777  0.0463  0.1906 -0.4589
 7446WAT      O22739   1.422   5.306   1.030  0.0998 -0.2480 -0.0994
 7446WAT     H122740   1.459   5.227   0.990 -1.6225 -1.6266  0.8444
 7446WAT     H222741   1.495   5.368   1.033  1.5899 -1.8692 -0.6798
 7447WAT      O22742   5.594   4.810   1.016 -0.2679 -0.4093 -0.1769
 7447WAT     H122743   5.629   4.876   1.076  1.2182 -1.3345  0.0307
 7447WAT     H222744   5.515   4.777   1.059 -0.7089  0.8217 -0.0204
 7448WAT      O22745   6.896   0.756   2.073  0.4788 -0.6156 -0.4766
 7448WAT     H122746   6.820   0.810   2.051  0.8193  1.2560  2.4526
 7448WAT     H222747   6.971   0.814   2.059  1.0148 -0.9991  0.7053
 7449WAT      O22748   2.653   0.969   1.010 -0.2859  0.3512 -0.6580
 7449WAT     H122749   2.581   0.909   0.992 -0.1739 -0.5133  1.4805
 7449WAT     H222750   2.720   0.913   1.050  0.2685  1.7032  0.3673
 7450WAT      O22751   1.656   0.175   3.729  0.0776  0.2740 -0.1293
 7450WAT     H122752   1.580   0.229   3.708 -1.2493 -1.5826 -0.3556
 7450WAT     H222753   1.620   0.101   3.779  1.9139 -0.0455  0.8252
 7451WAT      O22754   0.593   4.651   1.980 -0.2009 -0.4014  0.0313
 7451WAT     H122755   0.683   4.666   2.009 -0.4464 -0.7049  1.0145
 7451WAT     H222756   0.566   4.735   1.943  0.5868 -0.4045 -0.5765
 7452WAT      O22757   5.569   1.496   0.936 -0.2099 -0.0212  0.0864
 7452WAT     H122758   5.636   1.428   0.929  0.0114  0.3281 -1.5497
 7452WAT     H222759   5.519   1.490   0.854 -1.0859  0.8529  0.5299
 7453WAT      O22760   2.422   4.551   1.688  0.2785 -0.1858 -0.2202
 7453WAT     H122761   2.356   4.612   1.721  0.1254  0.3283 -1.4343
 7453WAT     H222762   2.506   4.588   1.715  0.1250 -0.3906  0.5785
 7454WAT      O22763   4.389   6.696   4.269 -0.3115 -0.5038 -0.0554
 7454WAT     H122764   4.309   6.680   4.319 -0.7927 -1.7185 -1.1650
 7454WAT     H222765   4.437   6.761   4.320 -0.8753 -1.5339  1.8596
 7455WAT      O22766   7.436   7.077   3.736  0.1820  0.2327 -0.5060
 7455WAT     H122767   7.349   7.114   3.726 -0.8824 -1.9690 -0.1004
 7455WAT     H222768   7.465   7.106   3.823 -0.1278  0.9626 -0.6395
 7456WAT      O22769   3.718   5.498   3.525  0.3230  0.7725  0.1232
 7456WAT     H122770   3.703   5.586   3.557  0.1011  1.0777 -0.7939
 7456WAT     H222771   3.657   5.443   3.573  0.0350  1.2121  0.2581
 7457WAT      O22772   6.746   6.384   6.124  0.4126 -0.2088  0.0852
 7457WAT     H122773   6.827   6.426   6.151  1.7346 -1.1328 -2.0876
 7457WAT     H222774   6.682   6.455   6.116  1.1587  0.6160  1.2858
 7458WAT      O22775   7.497   0.740   4.919 -0.6141  0.3505 -0.2996
 7458WAT     H122776   7.541   0.661   4.949  0.2748  0.9975  0.1427
 7458WAT     H222777   7.445   0.770   4.994  0.8684  1.4459  0.3273
 7459WAT      O22778   0.211   0.182   5.670  0.0894  0.2197 -0.3521
 7459WAT     H122779   0.167   0.151   5.591 -1.7104  0.3754  0.5434
 7459WAT     H222780   0.222   0.103   5.723  0.7674  0.2075 -0.5075
 7460WAT      O22781   5.662   0.037   2.915 -0.3109 -0.0031  0.0229
 7460WAT     H122782   5.710  -0.042   2.892 -0.8308 -0.2512 -0.2037
 7460WAT     H222783   5.684   0.052   3.007  0.8345  0.3346 -0.2853
 7461WAT      O22784   0.740   7.111   2.091 -0.0798 -0.0434  0.0014
 7461WAT     H122785   0.731   7.136   2.183 -0.6205 -0.6851  0.1344
 7461WAT     H222786   0.830   7.079   2.083  0.0159  0.1547  0.2693
 7462WAT      O22787   1.581   1.027   4.108 -1.2652 -0.1988 -0.2738
 7462WAT     H122788   1.650   0.981   4.155  0.8370  1.6332 -1.3779
 7462WAT     H222789   1.559   1.101   4.165  1.1614  1.9225 -1.8818
 7463WAT      O22790   5.987   4.682   3.058  0.2107  0.2528  0.3192
 7463WAT     H122791   6.066   4.671   3.005  0.1877 -0.0197  0.3389
 7463WAT     H222792   5.917   4.645   3.005 -0.3904  2.8533 -0.8726
 7464WAT      O22793   4.947   0.159   4.491 -0.5066  0.0427  0.0455
 7464WAT     H122794   4.987   0.245   4.506  0.0721 -0.0543 -0.8678
 7464WAT     H222795   4.853   0.177   4.484 -0.4184  0.5556  0.1550
 7465WAT      O22796   0.637   5.156   1.615  0.4694  0.0596 -0.1487
 7465WAT     H122797   0.594   5.090   1.562  0.8831 -0.1461 -0.2353
 7465WAT     H222798   0.672   5.108   1.690 -1.0246  0.5111  0.8725
 7466WAT      O22799   3.226   1.427   2.533  0.1523 -0.2810 -0.6645
 7466WAT     H122800   3.254   1.512   2.567  0.6165 -0.0970 -1.4769
 7466WAT     H222801   3.271   1.419   2.448 -0.8588 -0.7778 -1.1756
 7467WAT      O22802   0.785   1.049   6.239  0.1326  0.2626 -0.4295
 7467WAT     H122803   0.806   1.095   6.320 -0.2967  0.3371 -0.3579
 7467WAT     H222804   0.698   1.013   6.254  0.0748  0.2292 -0.8378
 7468WAT      O22805   3.786   4.007   4.169  0.7563  0.2651  0.5934
 7468WAT     H122806   3.712   3.995   4.110  0.8249  2.0672  0.0745
 7468WAT     H222807   3.753   3.980   4.255 -0.7948  1.7458  0.5240
 7469WAT      O22808   7.215   0.458   5.386  0.6042  0.5266  0.8299
 7469WAT     H122809   7.228   0.363   5.382  2.6957  0.7807 -1.2139
 7469WAT     H222810   7.140   0.475   5.329  1.5015  0.2084 -0.4953
 7470WAT      O22811   2.448   3.831   2.376  0.2259 -0.1279  0.7418
 7470WAT     H122812   2.493   3.748   2.389  0.5206 -0.1418 -0.2830
 7470WAT     H222813   2.409   3.824   2.289 -0.6778  0.3866  1.0912
 7471WAT      O22814   0.252   6.053   0.821 -0.7054 -0.2180 -0.1145
 7471WAT     H122815   0.235   5.986   0.756  0.6057 -2.4000  1.6581
 7471WAT     H222816   0.339   6.087   0.798 -0.7699 -0.1232 -0.2168
 7472WAT      O22817   5.189   5.916   2.233  0.0589  0.5755  0.6169
 7472WAT     H122818   5.248   5.980   2.192 -0.1623  0.9290  0.8501
 7472WAT     H222819   5.192   5.937   2.327 -1.2747  1.2897  0.5165
 7473WAT      O22820   1.818   4.033   5.785  0.1090 -0.0537 -0.0473
 7473WAT     H122821   1.740   4.063   5.831  0.6749 -1.5750  2.0555
 7473WAT     H222822   1.891   4.059   5.841  0.9145 -1.1163 -0.5570
 7474WAT      O22823   5.427   3.264   2.024  0.1999  0.2026  0.0947
 7474WAT     H122824   5.381   3.196   2.074 -1.2587  2.0685  1.4232
 7474WAT     H222825   5.368   3.340   2.026  1.7502  1.5289 -1.3545
 7475WAT      O22826   2.214   0.131   0.709 -0.0706  0.1113  0.2712
 7475WAT     H122827   2.169   0.075   0.645  0.8743  1.2463 -1.4767
 7475WAT     H222828   2.167   0.214   0.705  0.6868  0.5467  0.1805
 7476WAT      O22829   6.408   3.831   4.980 -0.3832 -0.0458  0.1037
 7476WAT     H122830   6.426   3.778   4.902 -0.2779 -0.4257  0.3891
 7476WAT     H222831   6.389   3.768   5.049  0.5874  0.2434  0.6584
 7477WAT      O22832   5.375   0.598   1.240  0.1103  0.5442 -0.0835
 7477WAT     H122833   5.344   0.562   1.323  0.8394  0.0541 -0.0073
 7477WAT     H222834   5.296   0.611   1.188 -0.1424 -2.4313 -0.6192
 7478WAT      O22835   1.042   0.140   2.434 -0.9733 -0.3562  0.5713
 7478WAT     H122836   0.987   0.121   2.510 -0.8398  3.1395  1.7519
 7478WAT     H222837   1.132   0.131   2.467 -0.8478 -1.5754 -0.0435
 7479WAT      O22838   3.502   4.848   1.672 -0.0636 -0.8299  0.6445
 7479WAT     H122839   3.591   4.849   1.707  0.8245  0.8618 -1.4993
 7479WAT     H222840   3.456   4.786   1.729  1.8322 -0.0070  3.3120
 7480WAT      O22841   4.111   3.931   1.931 -0.1625  0.1685 -0.3489
 7480WAT     H122842   4.057   3.991   1.982  1.1079  1.9449 -1.0048
 7480WAT     H222843   4.103   3.961   1.841 -0.2995 -1.3141 -0.8638
 7481WAT      O22844   0.363   0.311   5.184 -0.4516 -0.4547  0.3672
 7481WAT     H122845   0.295   0.244   5.181  0.2358 -1.1344 -0.9893
 7481WAT     H222846   0.358   0.346   5.272  0.1053 -3.2853  1.6270
 7482WAT      O22847   5.471   6.206   2.519  0.3836 -0.0399  0.4196
 7482WAT     H122848   5.481   6.268   2.591  0.6179  0.9341 -0.4331
 7482WAT     H222849   5.378   6.182   2.520  0.7210 -1.5516  2.2312
 7483WAT      O22850   2.092   6.792   1.572 -0.0142 -0.1066 -0.3174
 7483WAT     H122851   2.101   6.698   1.552 -0.6208 -0.2082 -0.1496
 7483WAT     H222852   2.068   6.794   1.664 -1.0953  0.1474 -0.5851
 7484WAT      O22853   4.895   3.429   5.055 -0.5000 -0.4260 -0.5791
 7484WAT     H122854   4.986   3.421   5.084 -0.7247 -5.6834 -0.3523
 7484WAT     H222855   4.900   3.480   4.974  2.3715  0.5653  0.0850
 7485WAT      O22856   6.360   6.575   4.868  0.0015  0.2095 -0.7366
 7485WAT     H122857   6.332   6.626   4.943  1.1110 -0.1096 -0.0881
 7485WAT     H222858   6.444   6.537   4.894  0.4370  0.1366 -2.1540
 7486WAT      O22859   7.568   2.252   2.002 -0.1200 -0.3978 -0.1015
 7486WAT     H122860   7.544   2.234   2.093 -0.0563  1.5878  0.3595
 7486WAT     H222861   7.648   2.201   1.988  0.8740  0.5998  1.5555
 7487WAT      O22862   3.348   3.185   3.951 -0.3365 -0.1498 -0.6612
 7487WAT     H122863   3.403   3.257   3.920 -1.5712  1.8644  1.4820
 7487WAT     H222864   3.354   3.189   4.046 -2.5262 -1.2104 -0.4040
 7488WAT      O22865   6.698   5.305   0.064 -0.2245 -0.0370 -0.0333
 7488WAT     H122866   6.785   5.284   0.097  0.2929  1.8248 -0.1260
 7488WAT     H222867   6.643   5.310   0.142  0.3195  1.2941  0.2743
 7489WAT      O22868   1.520   2.102   5.583 -0.3271  0.0985  0.2159
 7489WAT     H122869   1.471   2.126   5.504  1.6970 -0.1284 -1.1906
 7489WAT     H222870   1.454   2.069   5.643 -1.8128 -1.0599 -1.9107
 7490WAT      O22871   2.832   6.726   5.898  0.8861  0.1244  0.3709
 7490WAT     H122872   2.847   6.816   5.869  3.1834 -0.2259  0.2290
 7490WAT     H222873   2.837   6.674   5.818 -1.5142 -0.0821  0.2969
 7491WAT      O22874   7.535   1.429   2.295 -0.6271  0.0300 -0.1515
 7491WAT     H122875   7.504   1.469   2.376  0.5131  1.1760 -0.2570
 7491WAT     H222876   7.489   1.476   2.226 -1.6054 -0.9519 -0.2058
 7492WAT      O22877   3.206   4.607   5.213 -0.0649 -0.3035  0.3610
 7492WAT     H122878   3.137   4.617   5.279 -0.7583 -1.1762 -0.2083
 7492WAT     H222879   3.227   4.697   5.186 -2.0985 -0.0498 -0.5603
 7493WAT      O22880   1.635   6.832   3.795  0.2460 -0.2750 -0.4794
 7493WAT     H122881   1.672   6.780   3.723 -1.8907 -1.6038 -0.6989
 7493WAT     H222882   1.562   6.879   3.755 -0.3178 -0.2171  0.6007
 7494WAT      O22883   0.064   1.809   3.123 -0.1104  0.4785 -0.4986
 7494WAT     H122884   0.085   1.903   3.125  1.1909  0.2177  1.8777
 7494WAT     H222885  -0.012   1.801   3.180 -0.2431  0.0765 -0.7288
 7495WAT      O22886   0.605   4.403   4.061  0.3521  0.2114 -0.0977
 7495WAT     H122887   0.582   4.315   4.031  1.2202 -1.2517  3.0655
 7495WAT     H222888   0.530   4.431   4.112  1.2165 -0.0189  1.3599
 7496WAT      O22889   6.919   5.409   3.028 -0.0372 -1.0664 -0.2315
 7496WAT     H122890   6.838   5.359   3.043  0.4365 -2.1588 -1.1600
 7496WAT     H222891   6.889   5.497   3.005 -0.9312 -1.2007  0.3583
 7497WAT      O22892   5.031   3.643   5.318 -0.0146 -0.4490 -0.2259
 7497WAT     H122893   5.038   3.562   5.266  1.7797 -1.5043  1.5313
 7497WAT     H222894   5.117   3.654   5.357  0.0585  2.8414 -1.0326
 7498WAT      O22895   6.378   4.100   4.586 -0.1705  0.7634  0.1501
 7498WAT     H122896   6.324   4.092   4.507 -2.2543  1.8834  1.3734
 7498WAT     H222897   6.468   4.090   4.555 -0.9698  0.4438 -2.2379
 7499WAT      O22898   6.075   5.378   2.955  0.3409 -0.6593  0.6306
 7499WAT     H122899   6.052   5.423   2.874 -0.9298  0.7956  1.7199
 7499WAT     H222900   6.143   5.434   2.994  1.0127 -1.3980  0.5447
 7500WAT      O22901   0.324   1.360   5.212 -0.5026 -0.2156  0.4793
 7500WAT     H122902   0.301   1.449   5.239 -1.5069 -0.5124  0.6584
 7500WAT     H222903   0.416   1.350   5.236 -0.2189  0.9621 -0.0549
 7501WAT      O22904   4.856   4.675   6.088  0.1355 -0.4889 -0.0566
 7501WAT     H122905   4.805   4.596   6.070  0.0471 -0.5394  0.4020
 7501WAT     H222906   4.840   4.731   6.012 -0.2432 -0.6925 -0.1324
 7502WAT      O22907   6.844   4.729   3.224  0.1907  0.4307 -0.2371
 7502WAT     H122908   6.788   4.784   3.171  0.9638 -0.3165 -1.9081
 7502WAT     H222909   6.794   4.712   3.304 -1.4693  0.6854 -1.1972
 7503WAT      O22910   4.538   7.207   1.966 -0.2707  0.4606  0.3604
 7503WAT     H122911   4.620   7.159   1.983 -0.9193 -1.7681 -2.1727
 7503WAT     H222912   4.566   7.293   1.935  1.1668 -0.3869 -0.8177
 7504WAT      O22913   7.533   1.772   0.615  0.2973  0.4186  0.1364
 7504WAT     H122914   7.464   1.734   0.561  2.6235 -1.6156 -1.6533
 7504WAT     H222915   7.564   1.699   0.669  0.0786  1.6743  2.0904
 7505WAT      O22916   6.136   1.146   4.327 -0.0510  0.3119  0.6372
 7505WAT     H122917   6.200   1.207   4.364 -2.0016  1.2205  2.7626
 7505WAT     H222918   6.073   1.132   4.397 -0.5864 -2.9507 -0.3192
 7506WAT      O22919   3.273   6.762   6.109 -0.2787 -0.5352  0.1179
 7506WAT     H122920   3.179   6.767   6.128  0.2528 -0.0723  3.2319
 7506WAT     H222921   3.314   6.799   6.187  2.4841  1.1881 -1.9824
 7507WAT      O22922   5.589   1.986   5.129  0.2669  0.1208  0.1503
 7507WAT     H122923   5.636   1.983   5.046 -0.6285 -1.8394 -0.3325
 7507WAT     H222924   5.647   1.943   5.192 -0.4012 -1.3929 -0.2265
 7508WAT      O22925   3.869   4.640   6.212 -0.1149 -0.2485  0.2883
 7508WAT     H122926   3.793   4.676   6.256  0.2926  1.2106 -0.1069
 7508WAT     H222927   3.920   4.717   6.187  0.5221 -1.0940 -1.1672
 7509WAT      O22928   4.519   5.675   5.683 -0.1957 -0.3820 -0.2273
 7509WAT     H122929   4.424   5.666   5.697  0.1223  1.3185  5.2185
 7509WAT     H222930   4.540   5.763   5.714  3.4216 -1.6237  1.4601
 7510WAT      O22931   1.089   5.538   0.005  0.2455  0.1770 -0.0671
 7510WAT     H122932   1.037   5.490  -0.060  0.6889  0.8185 -0.9014
 7510WAT     H222933   1.063   5.499   0.089 -0.9168 -0.1230 -0.5458
 7511WAT      O22934   2.084   2.504   0.019  0.4032 -0.0334  0.5944
 7511WAT     H122935   2.174   2.537   0.027  0.2078  0.6367  0.1424
 7511WAT     H222936   2.044   2.524   0.104  0.9017 -1.0674  1.0948
 7512WAT      O22937   7.257   6.002   3.782  0.3661  0.1649 -0.0685
 7512WAT     H122938   7.241   6.020   3.875 -0.3169  1.2378 -0.3745
 7512WAT     H222939   7.300   6.080   3.749  0.8100 -0.2993 -0.6149
 7513WAT      O22940   1.220   0.663   1.235  0.6442 -0.0151 -0.2982
 7513WAT     H122941   1.278   0.664   1.158  1.1322  0.0726  0.0665
 7513WAT     H222942   1.235   0.748   1.277  0.8694 -0.3260  0.2572
 7514WAT      O22943   1.471   5.955   4.838 -0.4750 -0.2597 -0.0205
 7514WAT     H122944   1.541   5.937   4.775 -2.1182 -3.4732 -1.1292
 7514WAT     H222945   1.504   5.920   4.921  0.1211  0.3929  0.0311
 7515WAT      O22946   4.213   4.010   5.913  0.3251 -0.0514  0.1840
 7515WAT     H122947   4.209   4.031   6.006 -0.8888  0.7367 -0.0298
 7515WAT     H222948   4.273   3.935   5.909  0.1419 -0.3203  1.6366
 7516WAT      O22949   0.273   1.878   1.628 -0.0620 -0.5142  0.2617
 7516WAT     H122950   0.261   1.821   1.552 -2.0905  0.4065 -0.1787
 7516WAT     H222951   0.237   1.828   1.701 -1.6345  0.0422 -0.0863
 7517WAT      O22952   2.645   4.021   0.308  0.3517 -0.2969 -0.0003
 7517WAT     H122953   2.695   3.950   0.349  2.8056  0.7465 -0.9878
 7517WAT     H222954   2.621   4.079   0.380  1.5694 -0.2686  0.4023
 7518WAT      O22955   1.773   5.216   1.671  0.0053 -0.2511 -0.3823
 7518WAT     H122956   1.713   5.217   1.597 -0.7929  1.6858  0.2367
 7518WAT     H222957   1.810   5.304   1.673  1.7789 -0.9545  0.1550
 7519WAT      O22958   6.523   5.175   4.564  0.3522  0.1980 -0.4694
 7519WAT     H122959   6.600   5.229   4.549  0.4059  0.1843 -0.2351
 7519WAT     H222960   6.474   5.220   4.632  0.5680 -0.2268 -0.0304
 7520WAT      O22961   0.077   3.534   4.308 -0.2228  0.3646  0.1766
 7520WAT     H122962   0.170   3.555   4.315  0.1647 -1.1472 -0.0772
 7520WAT     H222963   0.032   3.616   4.330  1.1625  1.4709 -0.9220
 7521WAT      O22964   4.619   1.740   4.491 -0.2883 -0.0433 -0.0921
 7521WAT     H122965   4.689   1.717   4.430 -0.4091 -0.9648  0.1015
 7521WAT     H222966   4.625   1.835   4.500 -0.9471  0.3028 -2.3971
 7522WAT      O22967   3.770   3.000   4.215 -0.0116  0.1441  0.4069
 7522WAT     H122968   3.865   2.998   4.226 -0.0789 -1.6150  1.0484
 7522WAT     H222969   3.747   2.909   4.196 -1.3373  0.9109 -2.1253
 7523WAT      O22970   1.869   1.129   2.857  0.3459 -0.0508  0.4076
 7523WAT     H122971   1.900   1.069   2.925  1.3231  0.0789  0.0805
 7523WAT     H222972   1.887   1.216   2.892  0.2241  0.0308  0.2684
 7524WAT      O22973   0.991   4.666   4.463  0.3971 -0.1437  0.2265
 7524WAT     H122974   0.934   4.702   4.532  0.3757  1.0105 -0.3780
 7524WAT     H222975   0.941   4.678   4.382  0.9720 -0.2997 -0.1549
 7525WAT      O22976   0.553   3.510   2.114  0.4499  0.3350 -0.5847
 7525WAT     H122977   0.517   3.536   2.198  2.5398 -0.0850  0.5011
 7525WAT     H222978   0.490   3.543   2.050 -1.5013  0.1541  1.1313
 7526WAT      O22979   2.454   1.436   3.592 -0.0331  0.1765 -0.5794
 7526WAT     H122980   2.493   1.506   3.645 -0.3450  0.8357 -1.1967
 7526WAT     H222981   2.505   1.437   3.510 -1.5457  1.3144 -1.5564
 7527WAT      O22982   5.186   5.869   2.501  0.5652  0.4464 -0.1246
 7527WAT     H122983   5.239   5.882   2.579  2.6780 -0.1077 -1.3902
 7527WAT     H222984   5.164   5.776   2.501  1.1160  0.3123 -0.5049
 7528WAT      O22985   1.333   3.231   4.968 -0.6224 -0.1407 -0.7465
 7528WAT     H122986   1.369   3.253   4.882 -2.2019 -1.6724 -1.8698
 7528WAT     H222987   1.397   3.171   5.007 -0.8975 -1.1356 -1.7922
 7529WAT      O22988   5.890   2.665   0.604 -0.1754 -0.4690  0.1661
 7529WAT     H122989   5.881   2.577   0.641  0.9905 -0.6724  0.0068
 7529WAT     H222990   5.934   2.715   0.672  0.0193 -0.2601 -0.1121
 7530WAT      O22991   4.728   0.509   1.464 -0.2005  0.3753 -0.5840
 7530WAT     H122992   4.692   0.527   1.551 -2.0574  1.8372 -1.5938
 7530WAT     H222993   4.680   0.433   1.433  0.2503  0.0387 -0.4723
 7531WAT      O22994   3.438   0.070   4.625 -0.3729  0.5503  0.0703
 7531WAT     H122995   3.399  -0.016   4.643  0.0862  0.2864 -0.1552
 7531WAT     H222996   3.364   0.127   4.606 -0.7788  0.5176  1.4419
 7532WAT      O22997   3.836   7.063   6.243 -0.1486  0.3127 -0.3382
 7532WAT     H122998   3.794   7.142   6.211 -2.8111 -1.0731 -0.5318
 7532WAT     H222999   3.860   7.083   6.334 -1.8974  0.9772  0.0159
 7533WAT      O23000   3.041   6.962   1.444 -0.0310 -0.0734  0.4437
 7533WAT     H123001   3.025   6.995   1.356 -0.4853  0.0196  0.5571
 7533WAT     H223002   2.987   7.017   1.501 -0.8911 -1.0618  0.6303
 7534WAT      O23003   3.385   4.984   5.690  0.4144 -0.4397  0.5713
 7534WAT     H123004   3.380   4.965   5.784  1.0701  0.0165  0.7020
 7534WAT     H223005   3.336   4.912   5.649  2.3847 -2.1700  1.0817
 7535WAT      O23006   3.322   6.691   1.738  0.4908 -0.1123  0.5602
 7535WAT     H123007   3.246   6.646   1.702  1.7568 -0.9762 -1.1411
 7535WAT     H223008   3.291   6.727   1.821 -1.1472 -2.3599  1.0179
 7536WAT      O23009   7.022   5.432   5.751  0.2313  0.5861  0.1015
 7536WAT     H123010   6.994   5.402   5.665 -0.5549 -1.1921  0.9083
 7536WAT     H223011   7.112   5.401   5.759  0.1841  0.4276  0.0393
 7537WAT      O23012   6.734   5.067   3.530 -0.0404  0.2948 -0.5617
 7537WAT     H123013   6.737   5.030   3.618  0.8931  1.2633 -0.1681
 7537WAT     H223014   6.809   5.028   3.485  1.2083  1.9398 -0.0138
 7538WAT      O23015   2.008   5.739   2.467  0.2833  0.2031  0.0005
 7538WAT     H123016   2.095   5.770   2.489  0.0622  1.5566 -0.8615
 7538WAT     H223017   1.959   5.819   2.448 -1.2591 -0.4970  0.8287
 7539WAT      O23018   7.627   5.478   2.016  0.7381  0.5981 -0.0322
 7539WAT     H123019   7.607   5.432   2.098 -2.6388  1.8831  0.0278
 7539WAT     H223020   7.590   5.566   2.028  1.7370  1.4015 -2.2897
 7540WAT      O23021   5.673   2.635   0.154  0.2789 -0.4389  0.0249
 7540WAT     H123022   5.724   2.664   0.229 -1.4795  0.9175  0.7597
 7540WAT     H223023   5.664   2.713   0.099  0.6432 -1.1530 -1.0827
 7541WAT      O23024   0.062   0.865   6.245 -0.3233 -0.0623  0.5104
 7541WAT     H123025  -0.001   0.934   6.224  0.0839  0.7925  1.9788
 7541WAT     H223026   0.020   0.814   6.314 -0.2027 -0.6747  0.1378
 7542WAT      O23027   2.054   3.991   2.685  0.0449 -0.0372  0.0209
 7542WAT     H123028   2.144   3.967   2.660  0.1559 -1.7778  1.8021
 7542WAT     H223029   2.002   3.976   2.606  1.2858  0.9962 -1.0406
 7543WAT      O23030   4.147   4.442   4.381  0.3152  0.7350  0.0502
 7543WAT     H123031   4.219   4.433   4.442  0.3323  0.9836  0.0646
 7543WAT     H223032   4.069   4.445   4.436  0.2884  0.4182  0.0326
 7544WAT      O23033   5.776   4.973   6.011  0.4486 -0.3016 -0.3959
 7544WAT     H123034   5.793   5.009   5.925  0.7701 -0.3722 -0.3643
 7544WAT     H223035   5.863   4.959   6.049  0.3071  0.8832  0.4270
 7545WAT      O23036   5.962   5.971   2.305 -0.1800 -0.3237 -0.4110
 7545WAT     H123037   5.997   5.953   2.392  2.9051  0.9172 -1.2582
 7545WAT     H223038   5.999   6.057   2.281 -2.9626  0.5686 -1.9920
 7546WAT      O23039   0.112   4.694   5.529 -0.5943  0.0426  0.0407
 7546WAT     H123040   0.077   4.774   5.567  3.1478  1.5318  0.7349
 7546WAT     H223041   0.096   4.627   5.595 -0.3329  1.0877  1.2058
 7547WAT      O23042   1.090   3.756   4.182 -0.2462 -0.1331  0.1697
 7547WAT     H123043   1.156   3.761   4.113  0.6020  0.0105  0.9743
 7547WAT     H223044   1.056   3.666   4.175  2.0960 -1.2209  1.5605
 7548WAT      O23045   0.995   4.376   4.984  0.1278  0.0631 -0.0992
 7548WAT     H123046   1.036   4.441   4.927  2.8038 -1.1845  0.2695
 7548WAT     H223047   0.955   4.314   4.924  1.6222 -0.4279 -0.6249
 7549WAT      O23048   0.531   2.736   1.254  0.6607  0.2865  0.3247
 7549WAT     H123049   0.552   2.678   1.328  1.0175 -0.0984 -0.0725
 7549WAT     H223050   0.586   2.813   1.267 -0.0028  0.6540  0.9972
 7550WAT      O23051   4.135   3.997   1.015  0.2067  0.0621 -0.2613
 7550WAT     H123052   4.151   4.087   0.987  0.1365  0.4797  0.9913
 7550WAT     H223053   4.064   4.003   1.079  0.5184 -0.8134  0.1963
 7551WAT      O23054   6.518   2.126   0.573 -0.1052 -0.0897  0.9638
 7551WAT     H123055   6.511   2.041   0.531 -1.0258  0.8357 -0.8780
 7551WAT     H223056   6.551   2.107   0.661 -1.9515 -2.4978  1.2251
 7552WAT      O23057   3.989   2.316   1.614  0.5423  0.2820 -0.3943
 7552WAT     H123058   3.990   2.408   1.587 -0.0295 -0.3722 -2.8619
 7552WAT     H223059   4.038   2.270   1.545  0.7759 -1.2989  0.7626
 7553WAT      O23060   6.781   1.018   3.630  0.0201 -0.1019  0.2444
 7553WAT     H123061   6.700   1.014   3.680 -1.2618  0.3551 -1.6944
 7553WAT     H223062   6.785   1.107   3.597  0.4218 -0.5876 -1.0806
 7554WAT      O23063   0.427   0.407   1.736 -0.2305  0.5721 -0.3838
 7554WAT     H123064   0.458   0.496   1.753 -1.9556  1.0854  0.3196
 7554WAT     H223065   0.480   0.377   1.662  0.1895  2.3046 -0.8401
 7555WAT      O23066   0.846   5.070   3.465  0.0318  0.2859 -0.4773
 7555WAT     H123067   0.824   5.058   3.557 -0.1620  1.6314 -0.3271
 7555WAT     H223068   0.936   5.039   3.457 -1.0210 -3.0495 -0.5898
 7556WAT      O23069   1.064   3.450   4.358  0.3226 -0.0236  0.4404
 7556WAT     H123070   1.020   3.414   4.435 -3.5475  0.5054 -1.2586
 7556WAT     H223071   1.074   3.543   4.378 -0.2349  0.0263  0.5002
 7557WAT      O23072   1.402   0.627   4.729 -0.5124  0.2340 -0.7176
 7557WAT     H123073   1.386   0.602   4.638 -2.1854 -1.3830 -0.0493
 7557WAT     H223074   1.484   0.583   4.752 -0.7112 -0.3584 -1.1058
 7558WAT      O23075   7.418   6.019   3.239  0.9793  0.6034 -0.6223
 7558WAT     H123076   7.398   6.035   3.331 -1.7109  0.9180 -1.1746
 7558WAT     H223077   7.409   5.924   3.228 -0.3791  0.7328 -0.8479
 7559WAT      O23078   3.851   0.043   3.073  0.0114 -0.0688 -0.0981
 7559WAT     H123079   3.785   0.092   3.122 -0.7269 -0.6527 -0.4878
 7559WAT     H223080   3.890  -0.016   3.138  0.3725  0.4919  0.2011
 7560WAT      O23081   0.049   6.381   0.257 -0.3631  0.5816  0.4797
 7560WAT     H123082   0.087   6.305   0.213  1.9000  2.8717 -1.8728
 7560WAT     H223083   0.083   6.376   0.347  1.6557 -0.0131 -0.2654
 7561WAT      O23084   0.296   6.404   0.763 -0.0011 -0.1365  0.5684
 7561WAT     H123085   0.263   6.449   0.841  0.9663 -0.8661  1.4386
 7561WAT     H223086   0.336   6.324   0.797 -0.2459 -0.8651 -0.7716
 7562WAT      O23087   5.509   7.055   0.424 -0.6561 -0.4341 -0.4483
 7562WAT     H123088   5.415   7.074   0.421 -1.0302 -1.6878  1.4135
 7562WAT     H223089   5.529   7.047   0.517  0.9993 -1.5581 -0.8517
 7563WAT      O23090   2.911   5.877   1.441 -0.5867  0.0402  0.2123
 7563WAT     H123091   2.904   5.832   1.357  1.3143  2.2712 -1.2867
 7563WAT     H223092   2.838   5.939   1.441 -0.1539  0.5615 -0.1795
 7564WAT      O23093   7.386   6.476   3.562  0.3044  0.5833 -0.3952
 7564WAT     H123094   7.353   6.388   3.545  4.0015 -0.7158 -1.7959
 7564WAT     H223095   7.357   6.528   3.487  1.7525 -0.6527 -1.8843
 7565WAT      O23096   2.046   3.636   5.855 -0.3556  0.1591 -0.3730
 7565WAT     H123097   2.052   3.562   5.915  2.6849 -0.3677 -1.1215
 7565WAT     H223098   2.036   3.713   5.912 -1.2085 -0.6184  0.5535
 7566WAT      O23099   1.829   5.331   0.458 -0.1812 -0.2356 -0.2038
 7566WAT     H123100   1.824   5.343   0.553  1.4837 -0.6560 -0.0424
 7566WAT     H223101   1.860   5.242   0.447  0.3988  0.0727 -1.1287
 7567WAT      O23102   3.111   6.414   2.697  0.0101 -0.0865  0.4031
 7567WAT     H123103   3.192   6.366   2.678  0.0461 -0.0219  0.3940
 7567WAT     H223104   3.100   6.405   2.792  0.9378  1.3389  0.6773
 7568WAT      O23105   6.323   4.255   1.302 -0.0273 -0.1532 -0.3144
 7568WAT     H123106   6.354   4.331   1.349 -0.3898  0.1847 -0.6115
 7568WAT     H223107   6.241   4.231   1.346  1.6913 -2.4177  1.9293
 7569WAT      O23108   5.169   3.675   2.647  0.6651 -0.6166 -0.0922
 7569WAT     H123109   5.167   3.579   2.648  1.3683 -0.6558  1.6167
 7569WAT     H223110   5.226   3.697   2.574  0.6148 -1.5118 -0.4181
 7570WAT      O23111   6.168   2.038   4.832  0.1332  0.4015 -0.0575
 7570WAT     H123112   6.134   1.952   4.857  1.7785 -0.1733  0.3679
 7570WAT     H223113   6.146   2.095   4.906 -1.6064  0.5527 -0.6625
 7571WAT      O23114   2.046   4.843   2.103  0.8355 -0.4188  0.2478
 7571WAT     H123115   2.098   4.773   2.143 -0.1417 -1.9975 -1.1067
 7571WAT     H223116   1.973   4.798   2.063  0.3653  1.3777 -1.0281
 7572WAT      O23117   0.121   3.190   0.591 -0.1677 -0.4578  0.8294
 7572WAT     H123118   0.113   3.276   0.550 -1.0102 -0.5829  0.7166
 7572WAT     H223119   0.211   3.163   0.574 -0.6002 -0.6914 -1.3244
 7573WAT      O23120   5.815   3.868   5.645  0.9376  0.0309 -0.1392
 7573WAT     H123121   5.810   3.879   5.550  0.7522 -0.8973 -0.2539
 7573WAT     H223122   5.904   3.896   5.668  1.5247 -1.1576 -0.8195
 7574WAT      O23123   4.420   6.130   1.612 -0.2766  0.1440 -0.8487
 7574WAT     H123124   4.502   6.164   1.650 -0.8160  0.3808  0.1346
 7574WAT     H223125   4.352   6.188   1.646 -1.0678 -1.1177 -0.2023
 7575WAT      O23126   4.923   0.553   4.902 -0.4002 -0.0366  0.2644
 7575WAT     H123127   4.883   0.508   4.977  0.4080 -1.6208 -0.2199
 7575WAT     H223128   5.004   0.505   4.885  0.1638  1.2004 -0.7260
 7576WAT      O23129   0.947   0.628   4.153  0.5843  0.2068  0.1897
 7576WAT     H123130   0.999   0.551   4.130 -0.8507 -1.4966  2.2878
 7576WAT     H223131   0.856   0.598   4.146 -0.0636  2.2289 -0.5403
 7577WAT      O23132   1.463   5.711   2.207 -0.2511  0.2042  0.2058
 7577WAT     H123133   1.456   5.626   2.164  0.4854 -0.6176  1.6246
 7577WAT     H223134   1.470   5.689   2.300 -0.7655  1.8624  0.6565
 7578WAT      O23135   0.387   1.237   0.413  0.3897 -0.1036  0.4802
 7578WAT     H123136   0.343   1.172   0.467  1.6851 -1.3913  0.0463
 7578WAT     H223137   0.340   1.319   0.430  0.0942 -0.6799  2.7566
 7579WAT      O23138   2.234   0.930   0.562 -0.3906  0.4131 -0.8279
 7579WAT     H123139   2.141   0.906   0.560  0.1325 -1.8156 -0.8082
 7579WAT     H223140   2.277   0.855   0.603  1.4390  1.3802 -0.8975
 7580WAT      O23141   2.961   0.142   2.718 -0.0201 -0.0513  0.1110
 7580WAT     H123142   3.055   0.143   2.735 -0.3624  1.0580  2.3335
 7580WAT     H223143   2.936   0.050   2.728  0.6224 -0.1449  1.0010
 7581WAT      O23144   7.470   4.596   4.296  0.2328 -0.4452  0.1450
 7581WAT     H123145   7.422   4.571   4.217  0.4739 -0.1354 -0.0970
 7581WAT     H223146   7.454   4.689   4.306 -0.1620 -0.5690  0.7144
 7582WAT      O23147   6.773   1.343   1.601  0.6607  0.1001  0.1410
 7582WAT     H123148   6.750   1.266   1.548  0.6024  1.1474 -1.4082
 7582WAT     H223149   6.720   1.333   1.680 -1.6156  0.0267 -1.3012
 7583WAT      O23150   4.161   5.102   0.395  0.2434  0.4455 -0.3338
 7583WAT     H123151   4.071   5.094   0.362  0.3697  1.1770 -0.8955
 7583WAT     H223152   4.151   5.105   0.490 -0.1723 -1.2172 -0.3073
 7584WAT      O23153   7.114   1.097   3.012  0.3306 -0.6572  0.0074
 7584WAT     H123154   7.054   1.127   3.080 -0.2503 -0.5298 -0.5443
 7584WAT     H223155   7.101   1.003   3.008 -1.7715 -0.3922 -1.8305
 7585WAT      O23156   4.017   6.288   0.317 -0.3770  0.2163  0.3211
 7585WAT     H123157   3.982   6.322   0.400  0.9742  0.4041  0.8289
 7585WAT     H223158   4.110   6.277   0.333 -0.2116 -0.4105 -0.9692
 7586WAT      O23159   0.683   6.542   4.248 -0.4923  0.7495  0.1114
 7586WAT     H123160   0.752   6.494   4.293 -0.0705  0.9431 -0.3180
 7586WAT     H223161   0.602   6.497   4.273 -0.0578 -0.6407 -0.8265
 7587WAT      O23162   2.131   0.204   4.157  0.0227  0.0989 -0.1180
 7587WAT     H123163   2.158   0.271   4.220  1.5184  1.5927 -2.1946
 7587WAT     H223164   2.213   0.164   4.128 -0.5166  0.1858 -1.8362
 7588WAT      O23165   3.343   5.258   5.640  0.3080 -0.0504 -0.5573
 7588WAT     H123166   3.358   5.281   5.731 -2.3405  1.2562 -0.3368
 7588WAT     H223167   3.350   5.163   5.638 -1.3716 -0.2885  1.4592
 7589WAT      O23168   2.057   4.008   0.947 -0.4754  0.1037 -0.1745
 7589WAT     H123169   2.123   3.992   1.014 -0.9265 -0.4519  0.1438
 7589WAT     H223170   1.975   3.978   0.986 -0.7551 -0.1538 -0.9387
 7590WAT      O23171   0.453   1.565   0.121 -0.9511 -0.1922  0.3617
 7590WAT     H123172   0.526   1.553   0.182 -0.5814 -1.2869 -0.2602
 7590WAT     H223173   0.375   1.547   0.173 -0.5653 -2.7317  0.1925
 7591WAT      O23174   1.302   1.648   3.310 -0.3334 -0.4919  0.0272
 7591WAT     H123175   1.381   1.659   3.363 -0.0212 -2.9133  0.2125
 7591WAT     H223176   1.313   1.708   3.237  2.3709 -1.6368 -0.6395
 7592WAT      O23177   7.339   2.933   3.473  0.5165  0.6295 -0.6371
 7592WAT     H123178   7.370   3.011   3.520  0.8221  0.8271 -1.1586
 7592WAT     H223179   7.309   2.874   3.542  0.6044  1.0713 -0.2162
 7593WAT      O23180   3.723   1.241   3.748  0.0090  0.1264 -0.2756
 7593WAT     H123181   3.747   1.262   3.838  3.4712 -0.9720 -0.7928
 7593WAT     H223182   3.673   1.160   3.755 -0.8646  0.7276  0.7097
 7594WAT      O23183   4.842   6.032   2.667 -0.6167  0.4715  0.0290
 7594WAT     H123184   4.760   5.992   2.695  0.3243 -0.7571  1.1822
 7594WAT     H223185   4.875   5.974   2.599  0.2112 -0.1361  0.9223
 7595WAT      O23186   0.149   0.262   3.830 -0.0580  0.2233  0.3075
 7595WAT     H123187   0.075   0.318   3.805  0.5097  0.8452 -0.0132
 7595WAT     H223188   0.113   0.203   3.896 -0.8970  0.3679 -0.0076
 7596WAT      O23189   3.971   0.997   5.560 -0.3360  0.3625 -1.0696
 7596WAT     H123190   4.046   1.041   5.599 -1.1779  0.6680  0.2991
 7596WAT     H223191   3.950   0.926   5.621 -0.6927 -0.2001 -1.8269
 7597WAT      O23192   6.535   4.789   4.320 -0.2399  0.2828 -0.0119
 7597WAT     H123193   6.596   4.728   4.279 -0.0308 -1.2951  2.3979
 7597WAT     H223194   6.585   4.828   4.391 -1.1800  1.2251  0.1559
 7598WAT      O23195   3.571   3.307   3.874  0.0311  0.3011 -0.4972
 7598WAT     H123196   3.589   3.230   3.928 -0.0652  0.5421 -0.1189
 7598WAT     H223197   3.617   3.378   3.917  1.3725  0.1811 -1.6717
 7599WAT      O23198   7.504   6.759   3.053  0.0409 -0.6938  1.1424
 7599WAT     H123199   7.439   6.689   3.062 -0.5642 -0.0250  2.0685
 7599WAT     H223200   7.476   6.808   2.976 -1.5714  0.6035  2.4901
 7600WAT      O23201   1.546   1.482   4.575  0.1223  0.0112  0.0964
 7600WAT     H123202   1.562   1.455   4.484 -0.0776  2.1396 -0.6098
 7600WAT     H223203   1.632   1.512   4.606  0.1228 -0.4232  0.5376
 7601WAT      O23204   5.153   4.064   4.762  0.2837 -0.2122 -0.9023
 7601WAT     H123205   5.212   4.138   4.775 -0.5519  0.3421 -0.2665
 7601WAT     H223206   5.117   4.046   4.848  2.1852 -2.8506 -0.5216
 7602WAT      O23207   2.593   0.354   0.583 -0.4026  0.3776  0.5046
 7602WAT     H123208   2.685   0.348   0.557 -0.4860  0.3732  0.2035
 7602WAT     H223209   2.548   0.382   0.503 -0.6174  0.7033  0.7366
 7603WAT      O23210   5.222   6.707   1.383 -0.1904  0.0062 -0.2765
 7603WAT     H123211   5.274   6.786   1.399  1.5878 -1.2720  0.6778
 7603WAT     H223212   5.212   6.666   1.469  1.1280 -2.0540 -1.0137
 7604WAT      O23213   4.078   1.176   2.618 -0.5180  0.5427  0.3908
 7604WAT     H123214   4.020   1.253   2.618 -1.3234 -0.0450  1.2601
 7604WAT     H223215   4.158   1.206   2.661 -1.4789  0.4608  2.3317
 7605WAT      O23216   5.381   3.118   0.851  0.1598  0.1116 -0.1076
 7605WAT     H123217   5.310   3.114   0.787  0.8301 -0.4309 -0.8396
 7605WAT     H223218   5.359   3.051   0.916 -0.9600  1.2375  0.7244
 7606WAT      O23219   6.224   1.058   0.950  0.1316 -0.5181 -0.5198
 7606WAT     H123220   6.303   1.015   0.918  0.3459 -1.1114  0.7648
 7606WAT     H223221   6.241   1.076   1.043 -0.7781  0.4319 -0.5055
 7607WAT      O23222   5.859   0.498   3.139  0.2171  0.9325  0.3913
 7607WAT     H123223   5.906   0.573   3.173  1.4413  0.0826  0.6465
 7607WAT     H223224   5.806   0.532   3.068  0.5504  2.0668  0.6744
 7608WAT      O23225   5.611   2.791   2.518 -0.3112 -0.8600 -0.1083
 7608WAT     H123226   5.691   2.744   2.543  0.2745 -0.0539 -0.4381
 7608WAT     H223227   5.546   2.722   2.505  0.8470 -1.6934 -1.7899
 7609WAT      O23228   2.339   4.333   0.548 -0.3581  0.0967 -0.3646
 7609WAT     H123229   2.391   4.259   0.518 -0.1825  0.7678 -1.8312
 7609WAT     H223230   2.380   4.361   0.629  0.7936 -0.1761 -0.8425
 7610WAT      O23231   1.282   2.553   1.290 -0.0915 -0.4585 -0.0680
 7610WAT     H123232   1.288   2.640   1.329  0.4452 -0.7716  0.5641
 7610WAT     H223233   1.190   2.529   1.300 -0.1100 -0.2317  0.3408
 7611WAT      O23234   7.187   6.227   0.955 -0.2264 -0.0181 -0.2525
 7611WAT     H123235   7.263   6.172   0.935  1.1282  1.7659 -0.1407
 7611WAT     H223236   7.114   6.182   0.911  0.7239 -2.1458  0.2225
 7612WAT      O23237   2.135   1.957   3.391  0.6153 -0.2890  0.0859
 7612WAT     H123238   2.071   2.004   3.445  0.5950 -1.3183  1.0136
 7612WAT     H223239   2.169   1.889   3.450  1.2355 -0.8942 -0.9539
 7613WAT      O23240   5.520   6.541   1.309 -0.0421 -0.1849 -0.3662
 7613WAT     H123241   5.491   6.555   1.399  1.4376 -2.7123  0.5979
 7613WAT     H223242   5.444   6.501   1.265 -0.8178  1.1966 -0.3556
 7614WAT      O23243   6.651   0.208   2.558 -0.0749  0.2888  0.4104
 7614WAT     H123244   6.684   0.294   2.583  0.1336  0.0614  0.9224
 7614WAT     H223245   6.702   0.146   2.609  0.7170 -0.2251 -0.9585
 7615WAT      O23246   6.475   6.563   3.002  0.8384  0.1429  0.0482
 7615WAT     H123247   6.393   6.590   3.043  1.4834 -0.4877  1.8252
 7615WAT     H223248   6.478   6.614   2.920 -0.5599  1.3479  0.6919
 7616WAT      O23249   6.954   1.288   3.565  0.4224 -0.3031  0.2006
 7616WAT     H123250   6.971   1.219   3.630  2.9537  0.7849  0.7992
 7616WAT     H223251   7.023   1.278   3.500  1.5069  2.2549  0.8524
 7617WAT      O23252   2.454   3.364   5.387  0.5112  0.0455 -0.3420
 7617WAT     H123253   2.417   3.277   5.375 -1.0170  0.6872 -0.4679
 7617WAT     H223254   2.523   3.351   5.452  0.2960 -1.2428 -0.3342
 7618WAT      O23255   1.467   3.730   0.203  0.1276 -0.1407  0.2576
 7618WAT     H123256   1.399   3.761   0.143  0.8918 -1.9966 -1.7300
 7618WAT     H223257   1.426   3.658   0.250 -0.0069  0.3296  0.8670
 7619WAT      O23258   7.279   4.252   4.394 -0.7470  0.0914  0.3516
 7619WAT     H123259   7.318   4.238   4.480 -0.1260  0.0327  0.0684
 7619WAT     H223260   7.191   4.214   4.401 -0.3968 -0.6829  0.6987
 7620WAT      O23261   0.135   5.146   1.210  0.1508 -0.0980 -0.5389
 7620WAT     H123262   0.176   5.101   1.284  0.1857  0.6834 -0.0684
 7620WAT     H223263   0.126   5.079   1.143 -0.7778 -1.0747  0.5258
 7621WAT      O23264   6.452   2.345   2.682  0.4105 -0.4236 -0.1362
 7621WAT     H123265   6.491   2.382   2.603  1.5984 -0.4047  0.4324
 7621WAT     H223266   6.359   2.336   2.661  0.1690  2.1649 -0.5778
 7622WAT      O23267   0.173   6.659   1.216 -0.3573  0.0147 -0.5076
 7622WAT     H123268   0.083   6.657   1.185 -0.1871 -0.1285 -1.0019
 7622WAT     H223269   0.177   6.588   1.281 -0.8604  0.6847  0.2856
 7623WAT      O23270   4.456   0.197   4.903  0.0117  0.2478 -0.3396
 7623WAT     H123271   4.478   0.281   4.862 -0.8823  0.3973 -0.5411
 7623WAT     H223272   4.429   0.220   4.992  0.4472  0.0914 -0.1640
 7624WAT      O23273   0.516   4.040   0.655 -0.8001 -0.0174  0.4113
 7624WAT     H123274   0.437   4.065   0.607  0.1825  0.8356 -0.8031
 7624WAT     H223275   0.491   3.961   0.703 -2.4719  0.4051  0.2901
 7625WAT      O23276   1.110   0.840   0.950  0.5607 -0.0238 -0.1668
 7625WAT     H123277   1.191   0.847   0.899  0.0184  1.0377 -0.9230
 7625WAT     H223278   1.136   0.860   1.040  1.3691 -1.0167 -0.1672
 7626WAT      O23279   4.448   7.179   3.856 -0.0878 -0.4926  0.3149
 7626WAT     H123280   4.380   7.115   3.876 -1.0460  0.5467  0.4719
 7626WAT     H223281   4.459   7.229   3.936  2.0437 -1.6426  0.8267
 7627WAT      O23282   6.008   6.419   0.378  0.7118 -0.5451 -0.2117
 7627WAT     H123283   5.923   6.447   0.413  0.8837 -0.9667  0.5729
 7627WAT     H223284   6.070   6.484   0.412  0.6663 -0.0437 -1.0626
 7628WAT      O23285   0.980   4.046   2.995 -0.5887 -0.5437  0.1199
 7628WAT     H123286   1.050   4.058   3.060 -1.1168 -1.1044  0.8044
 7628WAT     H223287   1.007   4.100   2.921 -0.6803  1.2999  1.3601
 7629WAT      O23288   7.315   2.432   3.739 -0.6992 -0.3358  0.2397
 7629WAT     H123289   7.296   2.432   3.645 -1.5173  1.9780  0.3590
 7629WAT     H223290   7.408   2.410   3.745 -1.0140 -2.2164 -0.9674
 7630WAT      O23291   4.590   3.409   3.988  0.5170 -0.0756  0.0755
 7630WAT     H123292   4.516   3.373   4.037  1.5005  0.5103  2.0973
 7630WAT     H223293   4.551   3.442   3.907 -0.9423 -2.4909 -0.3043
 7631WAT      O23294   2.454   0.049   0.156  0.9904  0.7130  0.2807
 7631WAT     H123295   2.447   0.053   0.252 -0.6436 -0.7394  0.2759
 7631WAT     H223296   2.458   0.140   0.128  1.2955  1.1655  1.7086
 7632WAT      O23297   0.655   1.996   3.485 -0.0678  0.0910  0.4886
 7632WAT     H123298   0.705   2.074   3.512  2.7424 -1.7505  0.9626
 7632WAT     H223299   0.714   1.923   3.503 -1.1120 -1.9279 -3.3423
 7633WAT      O23300   2.094   4.243   3.241  0.0404 -0.6037 -0.4103
 7633WAT     H123301   2.180   4.207   3.263 -0.5585 -2.4293 -0.8062
 7633WAT     H223302   2.038   4.221   3.316 -0.0567  0.7440 -0.0669
 7634WAT      O23303   4.729   6.292   2.952 -0.0526 -0.1349 -0.1372
 7634WAT     H123304   4.634   6.289   2.940 -0.1154  0.0283  0.3061
 7634WAT     H223305   4.762   6.322   2.867 -0.5019  1.1301  0.1049
 7635WAT      O23306   6.259   0.381   2.295  0.2863  0.1337  0.1261
 7635WAT     H123307   6.323   0.317   2.326  0.0655 -0.1300  0.0382
 7635WAT     H223308   6.196   0.389   2.367  2.3074  3.0643  1.7771
 7636WAT      O23309   0.288   4.874   2.382  0.0786  0.1360  0.1001
 7636WAT     H123310   0.323   4.817   2.313 -0.3910 -1.0970  0.8388
 7636WAT     H223311   0.197   4.845   2.392 -0.2342  1.1900  0.3408
 7637WAT      O23312   1.385   7.202   1.722 -0.3908 -0.0769  0.0411
 7637WAT     H123313   1.305   7.225   1.769 -0.7767 -0.1041 -0.6000
 7637WAT     H223314   1.389   7.107   1.726 -0.1051 -0.0473  0.5357
 7638WAT      O23315   1.406   2.826   0.678  0.3334 -0.2903  0.0292
 7638WAT     H123316   1.390   2.901   0.735  0.2420 -0.4586  0.2259
 7638WAT     H223317   1.490   2.791   0.706 -0.7130 -1.7380  1.5988
 7639WAT      O23318   2.303   0.307   0.443  0.1129 -0.2973 -0.3259
 7639WAT     H123319   2.250   0.359   0.503  0.6337  1.5177 -1.3502
 7639WAT     H223320   2.349   0.372   0.389  1.9447 -1.8109 -0.7090
 7640WAT      O23321   3.810   1.085   0.193  0.2779 -0.9596  0.6440
 7640WAT     H123322   3.862   1.157   0.229 -2.8941  0.8637  2.0652
 7640WAT     H223323   3.755   1.127   0.126 -1.2154 -2.1556  1.0567
 7641WAT      O23324   6.470   3.119   2.445  0.2932 -0.4108  0.1210
 7641WAT     H123325   6.458   3.101   2.539 -0.0291  0.0514  0.1716
 7641WAT     H223326   6.391   3.166   2.419  1.3246  1.4161  0.1220
 7642WAT      O23327   5.761   7.028   0.348 -0.4925  0.1447 -0.6152
 7642WAT     H123328   5.788   6.961   0.409 -1.0383  1.7436  1.4971
 7642WAT     H223329   5.666   7.035   0.360 -0.3032  2.1009  0.1723
 7643WAT      O23330   3.996   3.330   0.983  0.8389 -0.7163  0.0462
 7643WAT     H123331   3.938   3.384   1.036  1.3906 -0.0385 -0.0212
 7643WAT     H223332   4.001   3.247   1.031 -0.9526 -1.1586 -0.4642
 7644WAT      O23333   7.092   4.137   1.841 -0.3501 -0.5251  0.2074
 7644WAT     H123334   7.095   4.173   1.752  0.0312 -0.4663  0.2417
 7644WAT     H223335   7.000   4.116   1.855 -0.4575 -0.2707 -0.0970
 7645WAT      O23336   5.015   3.386   0.806 -0.1133  0.2085 -0.2054
 7645WAT     H123337   5.064   3.331   0.868 -0.2893 -2.1729 -2.0045
 7645WAT     H223338   4.942   3.421   0.857  0.7352 -0.2006  1.3428
 7646WAT      O23339   4.052   3.447   2.247  0.4405 -0.4979  0.3957
 7646WAT     H123340   3.986   3.480   2.308  2.6011  2.9745  1.1293
 7646WAT     H223341   4.022   3.476   2.161  0.1080 -0.5604  0.4893
 7647WAT      O23342   5.758   7.057   5.131 -0.3618 -1.0640 -0.0663
 7647WAT     H123343   5.679   7.110   5.132  0.7552  0.7394 -1.1339
 7647WAT     H223344   5.803   7.079   5.213 -0.7789 -1.8258  0.3776
 7648WAT      O23345   1.160   1.400   1.076 -0.0057  0.2339  0.3604
 7648WAT     H123346   1.080   1.452   1.063  0.3360  0.7425  0.2742
 7648WAT     H223347   1.207   1.445   1.146  0.2495 -0.0089  0.3449
 7649WAT      O23348   7.005   6.331   5.066 -0.3861 -0.2259 -0.1321
 7649WAT     H123349   7.050   6.312   4.983 -0.4628 -2.6311  0.2911
 7649WAT     H223350   7.074   6.363   5.124 -0.2742  1.1843 -0.9839
 7650WAT      O23351   1.987   3.960   3.354 -0.2622  0.5947  0.1041
 7650WAT     H123352   1.925   3.902   3.397  0.4837 -0.8499 -0.6604
 7650WAT     H223353   2.024   4.013   3.424  1.6246 -2.3214  1.5362
 7651WAT      O23354   6.266   2.048   0.287 -0.4094  0.0733  0.1682
 7651WAT     H123355   6.346   2.018   0.328 -0.3673 -0.2868 -0.1674
 7651WAT     H223356   6.208   2.072   0.359 -0.6305 -1.3051  0.4580
 7652WAT      O23357   5.642   4.272   1.751  0.0776  0.3832 -0.3209
 7652WAT     H123358   5.609   4.339   1.691 -1.6489  0.9995  1.2686
 7652WAT     H223359   5.648   4.315   1.836 -0.7347 -1.3631  0.6760
 7653WAT      O23360   1.881   4.239   4.219  0.3598  0.3420 -0.0089
 7653WAT     H123361   1.868   4.157   4.267 -1.9714 -0.0185 -1.0779
 7653WAT     H223362   1.931   4.295   4.279 -1.4731 -0.4492  2.4297
 7654WAT      O23363   3.761   6.558   3.431  0.6337 -0.9973  0.2876
 7654WAT     H123364   3.801   6.528   3.512  2.0272  0.8263  0.3522
 7654WAT     H223365   3.703   6.630   3.458  3.4621  1.7901 -0.4785
 7655WAT      O23366   5.041   1.323   0.330  0.2747 -0.1245 -0.5000
 7655WAT     H123367   5.008   1.357   0.413  1.1824  0.2564 -0.2818
 7655WAT     H223368   5.093   1.246   0.356 -1.3788 -1.4532 -0.9423
 7656WAT      O23369   5.701   1.838   2.369  0.0380  0.1046 -0.3127
 7656WAT     H123370   5.779   1.844   2.425 -0.3894  0.8376  0.2251
 7656WAT     H223371   5.631   1.873   2.423 -1.2562 -2.9909  0.2515
 7657WAT      O23372   4.740   7.140   1.604 -0.4150 -0.1525 -0.0422
 7657WAT     H123373   4.661   7.086   1.602 -0.8268  0.4419 -0.5375
 7657WAT     H223374   4.724   7.203   1.675 -0.3886 -0.0288 -0.1455
 7658WAT      O23375   4.948   0.189   1.432 -0.0444 -0.2881 -0.0126
 7658WAT     H123376   4.945   0.251   1.506  2.0310 -1.8791  1.5394
 7658WAT     H223377   4.961   0.244   1.355 -1.7066  1.4048  0.8385
 7659WAT      O23378   3.785   5.516   4.253 -0.1058  0.1190 -0.0808
 7659WAT     H123379   3.835   5.436   4.268  1.1755  0.8221 -0.4025
 7659WAT     H223380   3.737   5.530   4.334  0.1397 -0.6366  0.2064
 7660WAT      O23381   7.114   2.891   5.081  0.4982  0.2107  0.3524
 7660WAT     H123382   7.076   2.803   5.089 -1.9400  1.0108 -1.4758
 7660WAT     H223383   7.065   2.944   5.143 -0.5343  0.9914 -1.0960
 7661WAT      O23384   6.441   6.110   5.710 -0.1549  0.0475  0.1471
 7661WAT     H123385   6.412   6.131   5.799 -0.6666  2.1888 -0.4599
 7661WAT     H223386   6.512   6.047   5.721 -2.5616 -2.6609  1.8840
 7662WAT      O23387   3.573   4.164   3.611  0.1838  0.4551  0.3630
 7662WAT     H123388   3.593   4.141   3.520 -0.5023  0.3852  0.2284
 7662WAT     H223389   3.480   4.146   3.621  0.4740 -0.5931  1.4082
 7663WAT      O23390   7.421   1.527   1.027  0.4097 -0.4056  0.2273
 7663WAT     H123391   7.347   1.581   1.000  1.0634  0.1164 -0.5774
 7663WAT     H223392   7.383   1.462   1.086 -0.5268  0.4329  0.5738
 7664WAT      O23393   3.065   3.448   0.846  0.3019  0.0333 -0.3022
 7664WAT     H123394   3.027   3.363   0.867  0.2084  0.3284  0.7897
 7664WAT     H223395   3.111   3.474   0.926 -1.2378  1.8493  0.0665
 7665WAT      O23396   4.249   2.521   2.457 -0.0464 -0.3969  0.2121
 7665WAT     H123397   4.270   2.583   2.387  1.1707 -0.4852  0.4804
 7665WAT     H223398   4.310   2.542   2.528 -3.2894  1.8040  2.6106
 7666WAT      O23399   2.448   0.666   4.896 -0.0772  0.5180  0.4774
 7666WAT     H123400   2.395   0.673   4.816  1.2285  1.4245 -0.3501
 7666WAT     H223401   2.436   0.751   4.939 -1.3049 -0.2043  1.6296
 7667WAT      O23402   5.569   6.120   6.154  0.2306  0.1097  0.0562
 7667WAT     H123403   5.519   6.185   6.202 -0.2943  0.7662 -1.3312
 7667WAT     H223404   5.657   6.158   6.146 -0.3919  1.3297 -1.8664
 7668WAT      O23405   4.463   0.530   4.401  0.2470 -0.4580  0.5235
 7668WAT     H123406   4.557   0.521   4.417  0.0243 -2.9408  0.8910
 7668WAT     H223407   4.424   0.529   4.488 -0.1026  2.1823  0.4799
 7669WAT      O23408   3.690   4.170   0.745  0.0962 -0.0593 -0.0823
 7669WAT     H123409   3.650   4.256   0.758 -1.3359 -0.7041 -0.0588
 7669WAT     H223410   3.688   4.129   0.831  1.0240 -0.0193 -0.0383
 7670WAT      O23411   2.890   4.738   2.239 -0.0428  0.2083  0.2144
 7670WAT     H123412   2.920   4.658   2.281  1.8805  0.2581 -0.9315
 7670WAT     H223413   2.823   4.773   2.298 -0.6559 -2.0064  0.9333
 7671WAT      O23414   3.838   6.806   4.666 -0.3593  0.6662 -0.0483
 7671WAT     H123415   3.837   6.711   4.674 -2.0661  0.7787  1.5416
 7671WAT     H223416   3.862   6.838   4.753 -2.2671  1.7124  0.1417
 7672WAT      O23417   0.580   2.784   2.828  0.7856 -0.3310 -0.2316
 7672WAT     H123418   0.553   2.850   2.892  1.5847 -0.9006  0.7149
 7672WAT     H223419   0.676   2.793   2.824  0.9837 -1.9330  0.4794
 7673WAT      O23420   2.831   5.121   1.997 -0.1768  0.3129 -0.4009
 7673WAT     H123421   2.840   5.207   2.040  1.2971  0.8169 -1.6312
 7673WAT     H223422   2.774   5.071   2.056 -1.2616  2.1901  0.2514
 7674WAT      O23423   1.708   1.699   4.250  0.0725 -0.4785  0.0044
 7674WAT     H123424   1.784   1.706   4.192 -0.8966  0.8646 -1.1933
 7674WAT     H223425   1.713   1.778   4.305 -0.0794 -0.7410  0.4002
 7675WAT      O23426   6.584   5.276   5.874  0.1983  0.1292 -0.3706
 7675WAT     H123427   6.532   5.334   5.819 -1.0083 -0.3618  0.2068
 7675WAT     H223428   6.543   5.283   5.961  2.1161  0.9802  0.5237
 7676WAT      O23429   7.293   5.942   1.949  0.1305  0.2668  0.7992
 7676WAT     H123430   7.360   6.005   1.921  0.8312 -1.8016 -2.8190
 7676WAT     H223431   7.342   5.869   1.985 -0.4544  0.2727  1.6309
 7677WAT      O23432   1.203   1.656   2.710  0.0205 -0.2876  0.2326
 7677WAT     H123433   1.150   1.641   2.632 -0.3047  0.1037  0.3737
 7677WAT     H223434   1.281   1.602   2.696 -0.9053 -1.7602  0.5454
 7678WAT      O23435   6.459   7.004   3.926  0.0244 -0.0401 -0.1476
 7678WAT     H123436   6.521   6.946   3.971 -1.1610 -2.2035 -1.1666
 7678WAT     H223437   6.390   7.019   3.990  0.0936 -0.1509 -0.0465
 7679WAT      O23438   3.710   6.189   3.925  0.0454  0.3665  0.2052
 7679WAT     H123439   3.717   6.271   3.975 -2.3890  1.3356 -0.9053
 7679WAT     H223440   3.650   6.135   3.977  0.7741 -0.2999  0.3722
 7680WAT      O23441   3.155   7.011   4.576  0.5756  0.0163  0.0289
 7680WAT     H123442   3.165   7.032   4.483  1.3023 -0.4076  0.0039
 7680WAT     H223443   3.131   7.094   4.617 -1.0881 -0.0543 -0.7240
 7681WAT      O23444   4.185   0.692   1.136  0.1941 -0.2743  0.3832
 7681WAT     H123445   4.159   0.634   1.208 -0.7136 -0.5965 -0.1881
 7681WAT     H223446   4.113   0.753   1.126  0.4250 -0.0712 -0.0851
 7682WAT      O23447   0.518   0.724   4.909  0.0754  0.0534 -0.7443
 7682WAT     H123448   0.525   0.633   4.939 -0.7742  0.0797 -0.4589
 7682WAT     H223449   0.499   0.774   4.989  1.5304  0.6287 -0.7258
 7683WAT      O23450   5.238   4.415   4.252 -0.8713  0.2964 -0.0690
 7683WAT     H123451   5.275   4.348   4.310 -0.4246  1.1593  0.6598
 7683WAT     H223452   5.201   4.480   4.311 -1.7112  0.4750 -0.7802
 7684WAT      O23453   5.986   2.152   2.909  0.0113 -0.3755 -0.4127
 7684WAT     H123454   5.928   2.176   2.981 -0.5121 -0.6795 -0.7269
 7684WAT     H223455   6.058   2.215   2.913  0.6121 -1.1140  1.1120
 7685WAT      O23456   0.335   4.376   4.903 -0.0474  0.0771  0.2153
 7685WAT     H123457   0.266   4.310   4.907  0.7045 -0.7287  0.1136
 7685WAT     H223458   0.309   4.433   4.830 -0.9293  0.1710  0.5901
 7686WAT      O23459   4.948   3.716   6.026  0.4732  0.1197  0.3386
 7686WAT     H123460   4.891   3.770   5.971  1.4836 -0.9296 -1.8664
 7686WAT     H223461   4.889   3.650   6.064 -0.3055  1.1108  0.8901
 7687WAT      O23462   0.237   0.161   1.303  0.3082 -0.3873 -0.0561
 7687WAT     H123463   0.264   0.224   1.370 -0.3060  1.4675 -1.4854
 7687WAT     H223464   0.142   0.172   1.296  0.0400 -2.2045  0.3498
 7688WAT      O23465   2.320   1.362   1.521  0.1206 -0.3059 -0.6716
 7688WAT     H123466   2.377   1.298   1.566 -0.2985  0.4764  1.0420
 7688WAT     H223467   2.264   1.396   1.590 -1.6661 -0.2002 -2.1260
 7689WAT      O23468   0.362   4.700   4.410 -0.2337 -0.2976  0.3743
 7689WAT     H123469   0.410   4.714   4.491  0.0717 -0.6290  0.2569
 7689WAT     H223470   0.270   4.698   4.436 -0.2827  1.4794  0.4453
 7690WAT      O23471   7.255   1.136   1.367  0.1812  0.1945 -0.1808
 7690WAT     H123472   7.210   1.107   1.446  2.5297 -0.0455  1.1596
 7690WAT     H223473   7.327   1.074   1.356 -0.7924 -0.5826 -3.3229
 7691WAT      O23474   0.415   6.835   0.254  0.7271  0.7265 -0.1877
 7691WAT     H123475   0.502   6.857   0.289  1.4059  0.4031 -1.5905
 7691WAT     H223476   0.396   6.748   0.288  1.2516  0.5330 -0.3784
 7692WAT      O23477   2.823   0.437   4.887 -0.1994  0.0224 -0.5320
 7692WAT     H123478   2.838   0.486   4.968  0.5790  0.4207 -0.9030
 7692WAT     H223479   2.845   0.346   4.910 -1.2363 -0.0918  0.0436
 7693WAT      O23480   6.964   6.374   1.335 -0.0756 -0.1617 -0.2508
 7693WAT     H123481   6.970   6.287   1.375  2.7498  0.1379  0.1611
 7693WAT     H223482   7.053   6.392   1.304 -1.3696  0.9991 -3.8305
 7694WAT      O23483   3.033   6.207   3.200 -0.3553  0.1868  0.0909
 7694WAT     H123484   2.989   6.140   3.148  0.4693 -0.4050  0.1195
 7694WAT     H223485   3.061   6.160   3.279 -1.5170  1.0509  1.0362
 7695WAT      O23486   0.068   3.856   3.955 -0.0619 -0.6248 -0.4011
 7695WAT     H123487   0.067   3.789   4.022 -2.0139 -0.6336 -0.3881
 7695WAT     H223488   0.080   3.938   4.003  0.7935 -0.8125 -0.2776
 7696WAT      O23489   7.637   2.592   1.894 -0.3542 -0.4302 -0.2447
 7696WAT     H123490   7.703   2.577   1.827  1.5488  2.2982  0.8579
 7696WAT     H223491   7.661   2.533   1.965  0.3654 -0.0974 -0.2041
 7697WAT      O23492   5.371   0.111   5.581  0.1527  0.0834 -0.0958
 7697WAT     H123493   5.462   0.139   5.570  0.9107 -2.3167 -0.4984
 7697WAT     H223494   5.348   0.140   5.669  1.0133  1.4616 -0.3074
 7698WAT      O23495   4.728   6.270   4.995  0.1003  0.2294 -0.3137
 7698WAT     H123496   4.663   6.206   5.026  0.6190  0.7098  1.9274
 7698WAT     H223497   4.719   6.344   5.055  0.8292  1.4760 -1.6887
 7699WAT      O23498   3.278   2.291   2.425 -0.0609  0.0348  0.3058
 7699WAT     H123499   3.246   2.281   2.335 -0.4034 -1.9328  0.5986
 7699WAT     H223500   3.210   2.343   2.468 -1.0563 -0.9253 -0.0361
 7700WAT      O23501   2.901   0.703   6.042  0.0782 -0.6628  0.2293
 7700WAT     H123502   2.983   0.743   6.012 -0.8426  0.1329 -1.3442
 7700WAT     H223503   2.865   0.765   6.105  0.0682 -0.3886 -0.0440
 7701WAT      O23504   0.870   7.042   2.646  0.2669 -0.3608 -0.0431
 7701WAT     H123505   0.869   6.953   2.611 -0.0247 -0.2161 -0.4021
 7701WAT     H223506   0.828   7.095   2.579  0.9719  0.1508 -0.0908
 7702WAT      O23507   3.849   4.331   4.240 -0.4160 -0.2670  0.3520
 7702WAT     H123508   3.779   4.265   4.239 -3.1728  2.3995  1.3840
 7702WAT     H223509   3.874   4.338   4.332 -0.8610  0.7246  0.4166
 7703WAT      O23510   1.491   0.159   2.297 -0.9712 -0.1756 -0.5482
 7703WAT     H123511   1.494   0.070   2.332  0.2254 -0.1713 -0.6012
 7703WAT     H223512   1.486   0.215   2.375  0.4797 -0.2166 -0.3982
 7704WAT      O23513   2.244   0.549   2.137 -0.4563  0.2272 -0.5538
 7704WAT     H123514   2.276   0.525   2.050 -0.9301  0.6261 -0.8482
 7704WAT     H223515   2.189   0.626   2.121  0.0178  0.7328  0.1990
 7705WAT      O23516   5.686   3.432   3.571  0.2490  0.0518 -0.2464
 7705WAT     H123517   5.691   3.385   3.654  1.3180 -1.7671 -1.2746
 7705WAT     H223518   5.608   3.487   3.579  0.3099 -0.0994  1.9220
 7706WAT      O23519   6.699   6.775   0.803 -0.6588 -0.6832 -0.0904
 7706WAT     H123520   6.731   6.687   0.784  2.2282  0.8252 -3.0436
 7706WAT     H223521   6.773   6.819   0.844 -1.1427  1.1008 -1.0423
 7707WAT      O23522   1.230   5.323   4.580  0.6623  0.2022 -0.0237
 7707WAT     H123523   1.178   5.271   4.641  0.2743 -0.3387 -0.7884
 7707WAT     H223524   1.271   5.258   4.522 -0.9591  0.7444 -1.8929
 7708WAT      O23525   6.519   4.883   2.646  0.2451  0.4300  0.2058
 7708WAT     H123526   6.509   4.802   2.696  1.3646 -0.9492 -1.6626
 7708WAT     H223527   6.441   4.888   2.591  0.8397 -0.2006 -0.7271
 7709WAT      O23528   6.002   0.538   2.635  0.1526  0.4476 -0.3461
 7709WAT     H123529   6.088   0.495   2.638 -0.2925 -0.5646  3.1758
 7709WAT     H223530   5.956   0.494   2.565  2.0620  0.1148 -1.4716
 7710WAT      O23531   7.242   3.267   6.210  0.0268  0.2889  0.2580
 7710WAT     H123532   7.299   3.231   6.278  0.1774 -1.2579 -0.6636
 7710WAT     H223533   7.153   3.253   6.244  0.1198  0.3087  0.5113
 7711WAT      O23534   2.401   5.275   1.417  0.5447  0.0849 -0.1266
 7711WAT     H123535   2.482   5.249   1.460  0.8663 -1.0645 -1.3622
 7711WAT     H223536   2.332   5.226   1.462  0.9688 -1.7634 -1.3528
 7712WAT      O23537   2.417   2.745   0.221  0.2093 -0.4247  0.3067
 7712WAT     H123538   2.322   2.732   0.223  0.0423  0.7552  1.6113
 7712WAT     H223539   2.439   2.753   0.128 -0.9568 -0.7057 -0.0092
 7713WAT      O23540   5.247   6.061   5.940 -1.0717  0.1154  0.0722
 7713WAT     H123541   5.278   6.152   5.943  1.3038 -0.6380  0.4446
 7713WAT     H223542   5.230   6.038   6.031 -1.1109 -0.0070  0.0348
 7714WAT      O23543   7.008   4.314   5.843 -0.4510  0.2426  0.7595
 7714WAT     H123544   6.959   4.352   5.770 -1.1926  1.5006  1.8565
 7714WAT     H223545   6.981   4.366   5.919 -0.3729 -1.5612  2.0949
 7715WAT      O23546   6.996   5.573   4.225 -0.4025 -0.8793 -0.2004
 7715WAT     H123547   7.062   5.516   4.262 -0.6678 -0.2460  1.3094
 7715WAT     H223548   6.979   5.537   4.138 -0.1577 -2.7341  0.4820
 7716WAT      O23549   3.767   2.131   1.260  0.0406 -0.0022  0.0385
 7716WAT     H123550   3.695   2.084   1.301 -0.9787  0.5783 -1.0216
 7716WAT     H223551   3.846   2.095   1.300 -0.8228 -0.8931  0.9724
 7717WAT      O23552   2.532   4.594   2.073  0.0112 -0.5352 -0.6323
 7717WAT     H123553   2.545   4.533   2.000  0.7714  0.1329 -1.0623
 7717WAT     H223554   2.526   4.537   2.150  1.4624 -1.1315 -0.9193
 7718WAT      O23555   1.082   7.082   1.500  0.0187  0.6130 -0.5402
 7718WAT     H123556   1.174   7.096   1.478  0.5938  1.6524  2.1358
 7718WAT     H223557   1.050   7.168   1.526 -2.0057  0.4390 -2.1993
 7719WAT      O23558   3.098   3.876   0.413  0.3703 -0.5920  0.3716
 7719WAT     H123559   3.037   3.906   0.480  1.4082  1.3833  0.5046
 7719WAT     H223560   3.177   3.853   0.462  0.1469 -2.0768  0.0905
 7720WAT      O23561   3.746   0.953   0.671 -0.6610 -1.0727 -0.3394
 7720WAT     H123562   3.739   0.960   0.576  1.2917 -0.7650 -0.4980
 7720WAT     H223563   3.828   0.906   0.685  0.3656  1.0650  1.2217
 7721WAT      O23564   4.574   2.677   3.167  0.4848  0.0930 -0.1227
 7721WAT     H123565   4.650   2.735   3.173 -0.0233  0.7432  0.1314
 7721WAT     H223566   4.513   2.710   3.233  0.2281 -0.8052  0.1095
 7722WAT      O23567   6.057   5.917   6.059 -0.2908  0.1609  0.0057
 7722WAT     H123568   6.118   5.888   6.127 -0.2791 -2.6696 -1.0964
 7722WAT     H223569   6.101   5.992   6.018  0.8351  0.3480  1.4775
 7723WAT      O23570   3.464   1.909   2.318 -0.0322 -0.1881  0.5271
 7723WAT     H123571   3.535   1.904   2.254 -2.0732 -0.9147 -1.8552
 7723WAT     H223572   3.481   1.836   2.378  0.7977 -0.8736 -0.4889
 7724WAT      O23573   7.318   6.811   5.044 -0.2347 -0.0803 -0.3193
 7724WAT     H123574   7.224   6.794   5.050 -0.2844 -0.2882 -1.4517
 7724WAT     H223575   7.348   6.816   5.135 -1.1547 -1.0493  0.0554
 7725WAT      O23576   5.044   0.406   0.000  0.3443  0.3637 -0.5049
 7725WAT     H123577   4.985   0.425   0.074  0.9683  1.6631 -0.3094
 7725WAT     H223578   4.986   0.385  -0.072 -0.2860 -0.9298  0.3403
 7726WAT      O23579   1.411   0.885   3.703 -0.0934 -0.4851 -0.0451
 7726WAT     H123580   1.488   0.898   3.757  0.5001  0.4019 -1.0665
 7726WAT     H223581   1.347   0.949   3.736  0.0458 -0.3686 -0.0024
 7727WAT      O23582   3.969   5.078   5.087 -0.1721  0.0981  0.7891
 7727WAT     H123583   3.940   5.010   5.026  0.5604 -0.1213  0.6782
 7727WAT     H223584   3.888   5.112   5.126 -0.6039 -0.1717  0.1345
 7728WAT      O23585   6.977   2.092   3.002  0.0918  0.1027  0.5067
 7728WAT     H123586   6.905   2.035   3.028 -0.6820  0.4136 -0.8521
 7728WAT     H223587   7.044   2.033   2.969 -0.4579 -0.0917 -0.3047
 7729WAT      O23588   5.501   5.707   3.478  0.1411 -0.1516  0.1630
 7729WAT     H123589   5.459   5.792   3.495  1.7932  0.4446  1.6096
 7729WAT     H223590   5.468   5.650   3.548 -0.4237 -0.5221 -0.3927
 7730WAT      O23591   2.115   5.862   6.171 -0.0767 -0.1557 -0.1926
 7730WAT     H123592   2.077   5.950   6.170 -2.4486 -1.0912 -1.6671
 7730WAT     H223593   2.191   5.869   6.229 -0.0511  2.8869 -0.4192
 7731WAT      O23594   3.700   4.605   4.625  0.0132 -0.2929  0.3186
 7731WAT     H123595   3.620   4.657   4.611  0.4249  0.7378  1.5644
 7731WAT     H223596   3.716   4.611   4.719  1.5537 -0.4885  0.0953
 7732WAT      O23597   3.552   1.564   1.408 -0.3832  0.5302  0.0913
 7732WAT     H123598   3.577   1.472   1.396  0.6433  0.8220 -0.1163
 7732WAT     H223599   3.627   1.603   1.453 -0.3189  1.5252 -0.8380
 7733WAT      O23600   5.697   2.279   5.218 -0.5197 -0.1912 -0.9924
 7733WAT     H123601   5.667   2.364   5.250 -0.2380  0.3886 -2.2294
 7733WAT     H223602   5.661   2.216   5.281 -1.3285  0.7755 -0.4590
 7734WAT      O23603   0.806   1.973   2.202 -0.0700  0.2874  0.2120
 7734WAT     H123604   0.881   2.031   2.188  0.5100 -0.3426  0.6497
 7734WAT     H223605   0.821   1.936   2.288 -0.6018 -0.2700  0.0644
 7735WAT      O23606   0.901   1.886   4.956 -0.0016  0.2055  0.6059
 7735WAT     H123607   0.927   1.977   4.969  1.6748 -0.0124 -0.7690
 7735WAT     H223608   0.936   1.840   5.032  0.4602  0.4876  0.5706
 7736WAT      O23609   6.955   6.730   0.274  0.6455  0.3407  0.4815
 7736WAT     H123610   7.043   6.757   0.301  0.2876  2.9978 -0.6787
 7736WAT     H223611   6.898   6.801   0.304 -1.1208 -1.2747  1.1059
 7737WAT      O23612   5.989   5.029   0.587 -0.1852  0.6668  0.0531
 7737WAT     H123613   6.080   5.000   0.591  0.0304  1.3947  0.4188
 7737WAT     H223614   5.958   5.023   0.677 -0.9527 -0.9687 -0.2724
 7738WAT      O23615   5.537   3.189   5.789  0.4154 -0.8179 -0.2938
 7738WAT     H123616   5.489   3.108   5.805  1.4981 -1.9320 -2.3270
 7738WAT     H223617   5.493   3.228   5.713  0.4814  0.0191  0.0909
 7739WAT      O23618   4.591   6.981   1.363 -0.1113 -0.4308 -0.1473
 7739WAT     H123619   4.541   6.988   1.445 -3.0167  0.7487 -1.8640
 7739WAT     H223620   4.607   7.072   1.337  1.5266 -0.7950 -0.5165
 7740WAT      O23621   0.377   2.427   0.392  0.7369  0.1144 -0.2820
 7740WAT     H123622   0.324   2.429   0.312 -1.3891 -0.3600  1.0361
 7740WAT     H223623   0.396   2.335   0.407  2.0049  0.2804 -0.7474
 7741WAT      O23624   0.486   1.686   5.289  0.0947  0.2006 -0.1469
 7741WAT     H123625   0.479   1.771   5.332 -0.7074  0.0261  0.0892
 7741WAT     H223626   0.395   1.658   5.276  0.2391  0.7074 -2.8971
 7742WAT      O23627   1.417   7.177   4.998  0.4336 -0.1382  0.0756
 7742WAT     H123628   1.478   7.115   4.957  2.6110  1.9182 -0.0188
 7742WAT     H223629   1.451   7.189   5.087 -1.6105 -1.1147  1.0607
 7743WAT      O23630   2.264   5.822   0.175  0.1149  0.3094  0.6930
 7743WAT     H123631   2.288   5.823   0.267 -2.0301  1.3736  1.3052
 7743WAT     H223632   2.206   5.747   0.165 -1.1040  1.2108  0.6763
 7744WAT      O23633   1.257   6.591   2.501 -0.2602 -0.1010 -0.0719
 7744WAT     H123634   1.330   6.588   2.563 -0.8185  0.8984  0.6593
 7744WAT     H223635   1.295   6.559   2.418  1.1118  0.7645  0.1883
 7745WAT      O23636   4.382   0.839   3.279 -0.3015 -0.2888  0.1058
 7745WAT     H123637   4.409   0.904   3.343  1.9906 -2.3027  1.3740
 7745WAT     H223638   4.288   0.827   3.295 -0.3344  1.1811  1.2295
 7746WAT      O23639   1.515   4.722   3.520  0.0183 -0.4060  0.2015
 7746WAT     H123640   1.597   4.708   3.472 -0.4813 -3.2388 -0.0038
 7746WAT     H223641   1.531   4.801   3.571  2.0375  0.4367 -1.5632
 7747WAT      O23642   6.506   5.261   0.562  0.3370  0.6892  0.1952
 7747WAT     H123643   6.421   5.233   0.595  0.9643  1.2810  2.4885
 7747WAT     H223644   6.564   5.186   0.577  0.5565  0.8280  0.0540
 7748WAT      O23645   7.097   3.363   1.719 -0.0347 -0.0138 -0.0693
 7748WAT     H123646   7.070   3.296   1.656  1.5748 -0.1915 -0.6271
 7748WAT     H223647   7.088   3.321   1.804 -3.0941  0.5176 -0.0172
 7749WAT      O23648   5.483   1.329   1.149  0.2776  0.1454 -0.0664
 7749WAT     H123649   5.554   1.336   1.213  0.9300  0.5381 -0.8122
 7749WAT     H223650   5.497   1.402   1.088 -1.3638  0.8485  0.3331
 7750WAT      O23651   4.372   2.207   6.112  0.0119 -0.8557  0.0653
 7750WAT     H123652   4.380   2.142   6.182  0.5553 -0.5938  0.2506
 7750WAT     H223653   4.378   2.291   6.157 -2.7560 -0.6113  0.0956
 7751WAT      O23654   5.354   0.781   2.320  0.4351  0.3450  0.0815
 7751WAT     H123655   5.403   0.727   2.258  0.6340 -0.0065  0.5432
 7751WAT     H223656   5.267   0.787   2.282  0.1720 -0.9807  0.4193
 7752WAT      O23657   7.020   1.396   6.214  0.0447  0.3398  0.8703
 7752WAT     H123658   6.932   1.427   6.237 -0.1633  0.0036  0.5342
 7752WAT     H223659   7.074   1.422   6.288 -0.4327  0.1333  1.2994
 7753WAT      O23660   7.325   2.378   3.146 -0.2005 -1.0055 -0.6457
 7753WAT     H123661   7.382   2.376   3.223 -1.3093  1.5217  0.3283
 7753WAT     H223662   7.253   2.319   3.168 -0.8234  0.1565  0.5728
 7754WAT      O23663   5.702   2.286   2.455  0.3242  0.0444  0.3456
 7754WAT     H123664   5.767   2.216   2.466  0.1707 -0.1503  0.0216
 7754WAT     H223665   5.669   2.303   2.543 -1.3471 -1.9270  0.1533
 7755WAT      O23666   6.227   3.188   2.347 -0.7579  0.6607  0.7482
 7755WAT     H123667   6.175   3.268   2.352 -0.9600  0.4807  1.8454
 7755WAT     H223668   6.162   3.118   2.342 -0.5792  0.5792 -0.9516
 7756WAT      O23669   1.941   3.487   4.036 -0.1716 -0.6238 -0.0164
 7756WAT     H123670   1.907   3.548   4.101 -0.0905 -0.1215 -0.4413
 7756WAT     H223671   1.998   3.428   4.086  2.6118  1.7870 -0.0709
 7757WAT      O23672   0.940   0.645   1.230 -0.3479 -0.0725 -0.6303
 7757WAT     H123673   1.028   0.677   1.212  0.1883 -1.6471 -1.0029
 7757WAT     H223674   0.953   0.573   1.292 -1.3223 -0.5922 -0.9984
 7758WAT      O23675   3.709   2.556   1.238 -0.1918  0.1026  0.6486
 7758WAT     H123676   3.623   2.516   1.230  0.4536 -1.2113 -0.0589
 7758WAT     H223677   3.771   2.483   1.229  1.0225  1.1896 -0.3211
 7759WAT      O23678   2.676   7.103   5.738  0.3946 -0.0647  0.3495
 7759WAT     H123679   2.753   7.049   5.754  1.0309 -0.3966 -3.0821
 7759WAT     H223680   2.617   7.047   5.688 -0.1251  1.4938 -0.8725
 7760WAT      O23681   0.036   4.824   2.412 -0.1231  0.3530  0.3397
 7760WAT     H123682  -0.018   4.857   2.484 -2.6625 -1.2311 -0.7146
 7760WAT     H223683   0.045   4.730   2.430 -1.8416 -0.3345 -1.9103
 7761WAT      O23684   5.008   0.640   5.299 -0.5332 -0.1770 -0.2404
 7761WAT     H123685   5.046   0.602   5.378  1.0919  0.7744 -0.5059
 7761WAT     H223686   4.978   0.565   5.248  1.5655 -1.0739 -0.2544
 7762WAT      O23687   4.937   1.490   2.928 -0.1064  0.0269 -0.8495
 7762WAT     H123688   4.908   1.579   2.945 -0.1919 -0.1884  0.2000
 7762WAT     H223689   4.872   1.454   2.868 -0.3107  0.5275 -0.9300
 7763WAT      O23690   5.635   4.049   5.160  0.2757 -0.0471 -0.0481
 7763WAT     H123691   5.593   4.062   5.245  1.0673  1.3124  0.1518
 7763WAT     H223692   5.727   4.068   5.175  0.2920  1.1208 -1.3817
 7764WAT      O23693   0.055   4.512   3.718  0.2561  0.9450  0.9964
 7764WAT     H123694   0.078   4.518   3.811  1.5559  0.4933  0.7222
 7764WAT     H223695   0.114   4.445   3.683  0.6741  2.0056 -0.4180
 7765WAT      O23696   4.001   7.036   5.849 -0.2451 -0.7161 -0.5352
 7765WAT     H123697   3.906   7.028   5.857 -0.0130 -1.7273  2.1800
 7765WAT     H223698   4.032   7.049   5.938  2.1034  0.9274 -1.4996
 7766WAT      O23699   2.936   6.438   5.078  0.0232  0.0302 -0.2621
 7766WAT     H123700   2.986   6.500   5.024  1.9692 -2.1194 -1.1030
 7766WAT     H223701   2.977   6.444   5.165 -0.3152  0.4703 -0.1302
 7767WAT      O23702   5.585   4.961   2.368 -0.2403 -0.1011 -0.2533
 7767WAT     H123703   5.608   5.041   2.321  1.5973 -1.8357 -2.5206
 7767WAT     H223704   5.491   4.953   2.358 -0.4340  1.6423 -0.1335
 7768WAT      O23705   1.562   3.864   3.191 -0.0676 -0.1598 -0.5574
 7768WAT     H123706   1.602   3.847   3.276 -1.8144  2.2821  0.9011
 7768WAT     H223707   1.480   3.909   3.212 -1.9132 -1.8069 -3.4704
 7769WAT      O23708   5.045   2.764   2.986  0.3378 -0.3117 -0.2944
 7769WAT     H123709   5.121   2.793   3.035 -0.6518  0.3002  0.9126
 7769WAT     H223710   4.970   2.801   3.032 -0.7363 -1.3539 -1.1303
 7770WAT      O23711   6.828   5.493   3.660  0.0134  0.6055 -0.0867
 7770WAT     H123712   6.741   5.473   3.696 -0.2444  0.9084 -0.5274
 7770WAT     H223713   6.873   5.409   3.656 -0.1070  0.5022  0.5322
 7771WAT      O23714   1.149   2.790   0.173  0.4291 -0.0871 -0.1741
 7771WAT     H123715   1.150   2.885   0.189 -1.4382 -0.4881  3.1323
 7771WAT     H223716   1.078   2.757   0.228  1.1943 -3.4812 -1.0128
 7772WAT      O23717   1.304   0.145   0.217 -0.4276  0.1201 -0.7654
 7772WAT     H123718   1.291   0.229   0.260  3.4038  0.6783 -0.4131
 7772WAT     H223719   1.255   0.083   0.271 -1.3084  1.7329  0.3707
 7773WAT      O23720   2.530   2.491   0.607 -0.6375 -0.4688 -0.2167
 7773WAT     H123721   2.511   2.529   0.693 -2.5280 -0.5032 -0.5673
 7773WAT     H223722   2.494   2.402   0.612 -2.7097  0.1987 -1.6536
 7774WAT      O23723   7.069   6.868   1.617 -0.5024 -0.3753 -0.2944
 7774WAT     H123724   6.988   6.854   1.666  0.0782 -0.9141  0.5481
 7774WAT     H223725   7.138   6.871   1.684  0.1052  0.7269 -0.9422
 7775WAT      O23726   2.837   6.928   3.020  0.1619  0.5248  0.3804
 7775WAT     H123727   2.803   6.848   3.061  1.6093 -0.9732 -1.1513
 7775WAT     H223728   2.861   6.984   3.094 -1.9077  0.0511  1.4894
 7776WAT      O23729   5.398   1.031   0.023  0.0582 -0.0216 -0.1183
 7776WAT     H123730   5.486   1.050   0.057 -0.7717 -0.5769  2.5941
 7776WAT     H223731   5.408   0.950  -0.026  0.8654 -0.8136  1.2984
 7777WAT      O23732   0.369   6.208   3.465  0.3995  0.6857  0.3809
 7777WAT     H123733   0.345   6.283   3.409  1.3749  2.0234  1.6840
 7777WAT     H223734   0.387   6.137   3.403 -1.2680  1.2721 -0.8650
 7778WAT      O23735   0.603   5.943   0.319 -0.4543 -0.6648  0.0888
 7778WAT     H123736   0.523   5.891   0.313 -1.3855  0.0513  3.7800
 7778WAT     H223737   0.583   6.024   0.271 -0.8117 -1.6527 -1.4731
 7779WAT      O23738   4.945   0.369   5.234  0.8197  0.5313 -0.1533
 7779WAT     H123739   4.860   0.391   5.273 -0.1973 -0.8349 -1.5232
 7779WAT     H223740   4.942   0.275   5.219  1.1051  0.9547 -3.5538
 7780WAT      O23741   2.343   3.596   5.297  0.5373  0.6541  0.6729
 7780WAT     H123742   2.413   3.541   5.333  0.1091 -0.0870  0.3868
 7780WAT     H223743   2.383   3.683   5.290  0.5906  0.8953  3.1037
 7781WAT      O23744   0.265   4.176   1.425 -0.6960 -0.6612 -0.0268
 7781WAT     H123745   0.305   4.173   1.512 -0.4297 -1.0072 -0.1588
 7781WAT     H223746   0.333   4.212   1.368 -1.6453  1.8523  0.3204
 7782WAT      O23747   6.142   6.453   4.657  0.4347  0.5773  0.0947
 7782WAT     H123748   6.061   6.498   4.680  0.2459  0.5875 -0.5599
 7782WAT     H223749   6.195   6.455   4.737 -0.1231  0.7567  0.4633
 7783WAT      O23750   6.916   0.875   2.684  0.1932 -0.2338 -0.1227
 7783WAT     H123751   6.961   0.959   2.693 -1.8770  0.9568 -0.3876
 7783WAT     H223752   6.972   0.813   2.731  2.4322  0.9943 -1.0001
 7784WAT      O23753   3.366   1.567   3.226 -0.2261 -0.5806  0.4180
 7784WAT     H123754   3.411   1.640   3.269 -0.2596  0.3492 -1.0854
 7784WAT     H223755   3.408   1.489   3.263  2.5275  0.2255 -0.7471
 7785WAT      O23756   0.334   4.410   4.174 -0.0520 -0.2302  0.1789
 7785WAT     H123757   0.352   4.396   4.267 -1.3989  1.8998  0.8166
 7785WAT     H223758   0.238   4.416   4.168 -0.0090 -0.5423 -1.3983
 7786WAT      O23759   0.082   6.942   4.549  0.4084 -0.2602 -0.0713
 7786WAT     H123760   0.159   6.934   4.493  0.7110 -1.2971  0.4565
 7786WAT     H223761   0.117   6.940   4.638 -0.1277  0.6216  0.1719
 7787WAT      O23762   4.114   2.263   6.028  0.0489  0.8617  0.6894
 7787WAT     H123763   4.123   2.358   6.041  0.4905  0.8975  0.1706
 7787WAT     H223764   4.201   2.228   6.049  0.3213  0.7466 -0.5347
 7788WAT      O23765   2.395   1.299   5.338 -0.2103  0.4673 -0.6631
 7788WAT     H123766   2.316   1.330   5.383  0.3838  0.3067  0.5304
 7788WAT     H223767   2.439   1.244   5.402  1.4306  1.4266 -0.9086
 7789WAT      O23768   0.287   0.988   4.424 -0.2767  0.6304  0.3356
 7789WAT     H123769   0.214   0.973   4.484  0.5698 -0.1954  1.2017
 7789WAT     H223770   0.306   1.081   4.431 -0.4251  0.6071  1.0732
 7790WAT      O23771   5.663   2.291   2.756 -0.3612  0.1450 -0.4649
 7790WAT     H123772   5.724   2.257   2.822 -0.5777 -0.9338 -0.8103
 7790WAT     H223773   5.595   2.224   2.750 -0.8684  0.7109 -1.0665
 7791WAT      O23774   5.394   2.571   3.256 -0.0811 -0.5935  0.4552
 7791WAT     H123775   5.403   2.610   3.343 -0.0159 -0.1427  0.2448
 7791WAT     H223776   5.410   2.477   3.271  0.6596 -0.4200  0.8074
 7792WAT      O23777   0.362   2.674   0.080 -0.0392 -0.3089  0.2842
 7792WAT     H123778   0.271   2.691   0.103 -0.4924 -2.8082  0.5947
 7792WAT     H223779   0.411   2.687   0.161 -0.2067  0.4171  0.2707
 7793WAT      O23780   6.358   4.601   5.221 -0.3683 -0.4631 -0.1334
 7793WAT     H123781   6.292   4.656   5.178  0.9129 -0.0051 -1.6155
 7793WAT     H223782   6.439   4.650   5.211  0.3385 -1.3691  0.9966
 7794WAT      O23783   6.229   2.444   5.495 -0.6209 -0.3358  0.1905
 7794WAT     H123784   6.192   2.358   5.479  1.5178 -1.2253 -0.3230
 7794WAT     H223785   6.210   2.461   5.587 -0.6413 -1.5791  0.4333
 7795WAT      O23786   1.688   3.378   5.924  0.2596  0.2564  0.3908
 7795WAT     H123787   1.644   3.429   5.992 -0.5687 -0.8719  0.7180
 7795WAT     H223788   1.618   3.326   5.884  0.4726  1.7283 -2.1520
 7796WAT      O23789   1.636   0.526   4.835  0.1990  0.2548  0.1494
 7796WAT     H123790   1.618   0.560   4.923 -1.3685 -2.0687  0.8302
 7796WAT     H223791   1.727   0.496   4.839  0.6125  1.5111  0.4934
 7797WAT      O23792   3.502   5.100   6.148  0.6055  0.1539  0.6840
 7797WAT     H123793   3.424   5.080   6.200  0.0874 -1.2249 -0.5228
 7797WAT     H223794   3.563   5.141   6.209 -0.8961  0.8450  1.7606
 7798WAT      O23795   3.862   1.327   5.701 -0.1050  0.0963 -0.0118
 7798WAT     H123796   3.939   1.369   5.739  0.2351  0.9096 -1.5204
 7798WAT     H223797   3.790   1.385   5.724  0.0038  0.2641 -0.0912
 7799WAT      O23798   0.311   2.903   5.995 -0.2264  0.1903  0.1586
 7799WAT     H123799   0.267   2.836   6.048 -2.0633  1.1128 -0.1442
 7799WAT     H223800   0.399   2.867   5.981 -0.3351 -1.0104  2.0976
 7800WAT      O23801   4.906   2.280   0.047  0.4857  0.1144 -0.9926
 7800WAT     H123802   4.950   2.363   0.030  0.3606  0.1160 -1.3050
 7800WAT     H223803   4.967   2.232   0.104  0.3386  0.6177 -0.3973
 7801WAT      O23804   1.847   6.995   0.361  0.0355  0.4345  0.2856
 7801WAT     H123805   1.852   6.935   0.435  1.1019  1.6340  1.2227
 7801WAT     H223806   1.924   7.052   0.370 -0.2681  1.1576 -1.2656
 7802WAT      O23807   0.773   4.522   4.587  0.2357 -0.1455 -0.1022
 7802WAT     H123808   0.684   4.487   4.587 -0.3686  1.3243 -0.4597
 7802WAT     H223809   0.817   4.478   4.514 -0.4972 -0.1316 -0.5528
 7803WAT      O23810   3.571   6.522   4.830 -0.0634  0.1702 -0.1297
 7803WAT     H123811   3.637   6.588   4.848 -1.7761  1.8711  0.1647
 7803WAT     H223812   3.555   6.479   4.914  2.0531 -1.7080 -0.5762
 7804WAT      O23813   2.036   3.261   3.692 -0.5432  0.1830 -0.4590
 7804WAT     H123814   1.999   3.261   3.780 -1.2580 -0.4478 -0.7432
 7804WAT     H223815   2.075   3.174   3.682 -0.3227  0.3063 -0.7156
 7805WAT      O23816   1.185   4.981   1.361  0.7307 -0.0054  0.2580
 7805WAT     H123817   1.260   4.970   1.419  1.5498 -0.5590 -0.8602
 7805WAT     H223818   1.216   5.040   1.293  0.4115 -0.8124 -0.6102
 7806WAT      O23819   7.573   5.862   1.337  0.5505 -0.5830  0.2997
 7806WAT     H123820   7.603   5.941   1.291  0.4109  0.4538  1.9173
 7806WAT     H223821   7.538   5.806   1.268 -1.3549  1.6722 -0.6794
 7807WAT      O23822   1.432   6.336   4.086  0.2001  0.2514 -0.1266
 7807WAT     H123823   1.347   6.298   4.106  0.1000  0.9600  0.9077
 7807WAT     H223824   1.414   6.404   4.021 -0.0513  0.4860  0.1850
 7808WAT      O23825   6.792   4.899   2.553 -0.4570  0.1059 -0.0106
 7808WAT     H123826   6.722   4.916   2.616 -0.4518  1.3376 -0.3275
 7808WAT     H223827   6.867   4.875   2.608 -1.0247 -0.9475  0.3396
 7809WAT      O23828   6.787   1.932   1.533  0.2707 -0.7149 -0.7004
 7809WAT     H123829   6.739   2.006   1.571  1.7626  0.3911 -0.8747
 7809WAT     H223830   6.725   1.859   1.537 -2.0729  0.9850 -2.4679
 7810WAT      O23831   7.119   5.263   3.109  0.1215  0.5241 -0.1742
 7810WAT     H123832   7.182   5.313   3.160  0.8748  1.9142 -2.3386
 7810WAT     H223833   7.050   5.327   3.087 -0.3449 -0.1196 -0.6269
 7811WAT      O23834   0.321   0.651   5.629 -0.0630 -0.3660 -0.4343
 7811WAT     H123835   0.323   0.566   5.673 -0.9702  1.3686  3.3589
 7811WAT     H223836   0.228   0.672   5.620  0.1280  0.7148 -0.1025
 7812WAT      O23837   4.091   6.889   2.949 -0.0866  0.1191 -1.0188
 7812WAT     H123838   4.026   6.819   2.937  0.7330 -0.3717 -3.0805
 7812WAT     H223839   4.045   6.969   2.924 -0.1256 -0.1340 -1.7843
 7813WAT      O23840   3.041   0.801   5.718  0.0374 -0.2887 -0.6381
 7813WAT     H123841   3.060   0.723   5.770 -0.8563 -0.0427  0.0911
 7813WAT     H223842   3.118   0.856   5.728 -0.2790 -0.0735  0.7823
 7814WAT      O23843   2.646   6.111   3.914  0.2291 -0.1452 -0.7479
 7814WAT     H123844   2.728   6.094   3.960  0.6386  1.8372 -0.6515
 7814WAT     H223845   2.671   6.121   3.822  0.0646  0.1217 -0.7673
 7815WAT      O23846   2.219   6.159   4.443  0.1473 -0.3361  0.0567
 7815WAT     H123847   2.171   6.096   4.497  0.5403 -0.9788 -0.3413
 7815WAT     H223848   2.207   6.128   4.353 -3.0386  2.3308 -0.6429
 7816WAT      O23849   4.513   2.716   4.874 -0.3394 -0.3535 -0.0167
 7816WAT     H123850   4.591   2.766   4.900  0.2633 -0.6298 -1.2197
 7816WAT     H223851   4.479   2.681   4.956 -1.1640  2.5121  0.9872
 7817WAT      O23852   5.345   6.306   2.258  0.1391  0.3891  0.0643
 7817WAT     H123853   5.435   6.281   2.277 -0.2596 -0.0838  1.5309
 7817WAT     H223854   5.292   6.242   2.306 -1.0168 -0.0979 -1.7467
 7818WAT      O23855   6.124   2.648   2.181  0.6115  0.2631 -0.4713
 7818WAT     H123856   6.202   2.668   2.233 -0.3356  1.6938  0.4722
 7818WAT     H223857   6.100   2.559   2.208  2.2715 -0.4986 -1.3032
 7819WAT      O23858   1.259   2.392   1.606  0.1630  0.8094 -0.4394
 7819WAT     H123859   1.234   2.376   1.698  0.5074  0.7113 -0.3620
 7819WAT     H223860   1.284   2.484   1.604  0.0959  0.8279 -0.4509
 7820WAT      O23861   3.765   2.042   2.455  0.0664  0.0995  0.3599
 7820WAT     H123862   3.768   1.997   2.370  0.7729  2.1308 -0.7729
 7820WAT     H223863   3.748   1.973   2.518 -0.3205 -1.5274 -1.4141
 7821WAT      O23864   2.030   2.409   5.582  0.6785 -0.1014 -0.6867
 7821WAT     H123865   2.019   2.374   5.493  3.0406 -0.5862 -0.8601
 7821WAT     H223866   1.994   2.341   5.639 -0.1066 -0.1548 -1.2265
 7822WAT      O23867   5.018   3.961   0.729 -0.1981  0.3554 -0.0352
 7822WAT     H123868   5.090   4.016   0.760 -1.0935 -0.2139  3.5103
 7822WAT     H223869   5.060   3.879   0.702  0.7013  0.9971 -0.6086
 7823WAT      O23870   0.986   6.997   5.978 -0.1059  0.0539 -0.2640
 7823WAT     H123871   1.036   7.006   6.059  0.2489  1.1279 -0.5805
 7823WAT     H223872   1.042   6.943   5.922 -0.2938 -0.5807  0.1536
 7824WAT      O23873   0.163   0.120   4.345  0.9403 -0.4022 -0.0865
 7824WAT     H123874   0.095   0.064   4.310  0.2623  1.2262 -1.4890
 7824WAT     H223875   0.195   0.073   4.422 -1.7480 -1.2354  0.6336
 7825WAT      O23876   0.216   3.901   2.835  0.1004  0.2091 -0.6150
 7825WAT     H123877   0.201   3.987   2.795  0.6048  0.3455 -0.5221
 7825WAT     H223878   0.310   3.900   2.854 -0.3691  0.8021  2.0517
 7826WAT      O23879   0.594   4.885   4.770  0.3304 -0.0135  0.0476
 7826WAT     H123880   0.683   4.922   4.772  0.1755  0.4233  2.2453
 7826WAT     H223881   0.596   4.817   4.838 -0.8406 -0.4748 -0.3563
 7827WAT      O23882   5.136   4.658   4.760 -0.7844  0.2423 -0.2870
 7827WAT     H123883   5.167   4.702   4.840 -1.5468 -0.8666  0.6447
 7827WAT     H223884   5.104   4.729   4.705  3.1385  1.4896 -1.2644
 7828WAT      O23885   2.897   5.471   0.690 -0.1525  0.3278 -0.0675
 7828WAT     H123886   2.921   5.510   0.774 -0.8839  0.2421  0.1872
 7828WAT     H223887   2.813   5.428   0.706  0.1971 -0.5792 -0.5742
 7829WAT      O23888   5.200   5.022   5.634 -0.9665 -0.6119 -0.7730
 7829WAT     H123889   5.295   5.008   5.638 -1.0567 -1.1821  2.5042
 7829WAT     H223890   5.182   5.081   5.707 -3.2284 -1.2570 -0.7344
 7830WAT      O23891   6.785   6.511   0.810  0.1088 -0.0026  0.6660
 7830WAT     H123892   6.872   6.549   0.802 -0.2416  0.4877 -1.2814
 7830WAT     H223893   6.795   6.441   0.874  1.9578 -0.0417  0.3795
 7831WAT      O23894   4.255   2.443   4.655  0.1812 -0.0768 -0.0346
 7831WAT     H123895   4.324   2.396   4.608 -0.4408 -1.1486  0.1065
 7831WAT     H223896   4.281   2.439   4.747 -0.1369 -0.5913  0.0320
 7832WAT      O23897   6.619   0.043   0.759  0.1659  0.1727  0.4090
 7832WAT     H123898   6.650   0.021   0.671 -0.1152  0.4736  0.2334
 7832WAT     H223899   6.698   0.057   0.810  0.3435 -0.6841  0.3778
 7833WAT      O23900   3.425   3.750   3.785 -0.5398  0.1630  0.0846
 7833WAT     H123901   3.430   3.655   3.775 -0.3328  0.2004 -0.1677
 7833WAT     H223902   3.509   3.775   3.824 -0.8696  0.1631  0.8261
 7834WAT      O23903   2.308   4.140   0.029 -0.5744  0.2237 -0.3008
 7834WAT     H123904   2.309   4.102   0.116  0.3829  0.2163 -0.3049
 7834WAT     H223905   2.247   4.085  -0.021 -0.6179 -0.1682  0.1804
 7835WAT      O23906   7.250   2.734   1.404 -0.3641  0.0007  0.4012
 7835WAT     H123907   7.179   2.797   1.407 -0.3963 -0.0139 -0.0882
 7835WAT     H223908   7.231   2.678   1.329  0.0630 -0.1170  0.3736
 7836WAT      O23909   5.942   2.827   0.840  0.1091 -0.5253 -0.1322
 7836WAT     H123910   5.990   2.875   0.908  0.9066 -0.4010 -0.7584
 7836WAT     H223911   5.921   2.893   0.775 -0.7079 -0.6321  0.0223
 7837WAT      O23912   5.366   2.344   3.476 -0.6506  0.4088 -0.1199
 7837WAT     H123913   5.336   2.399   3.547 -0.3911 -1.5601  1.6151
 7837WAT     H223914   5.462   2.348   3.481 -0.6211 -0.6228  0.4211
 7838WAT      O23915   1.773   4.686   3.387  0.1575  0.5122  0.1813
 7838WAT     H123916   1.770   4.600   3.345 -0.1615  0.7481 -0.2809
 7838WAT     H223917   1.804   4.746   3.319 -1.6770  1.1399 -0.1527
 7839WAT      O23918   6.950   2.331   2.437 -0.3581  0.2220 -0.0871
 7839WAT     H123919   7.039   2.358   2.461 -0.1307 -0.9100  0.3798
 7839WAT     H223920   6.940   2.359   2.346 -0.2075  2.0294  0.4112
 7840WAT      O23921   0.420   2.674   3.552  0.1223  0.2669  0.2273
 7840WAT     H123922   0.486   2.672   3.620  2.1457  0.3751 -1.6163
 7840WAT     H223923   0.366   2.750   3.574  0.1826 -0.1913  2.1196
 7841WAT      O23924   4.523   3.916   2.481  0.2112 -0.5617 -0.3411
 7841WAT     H123925   4.508   3.994   2.534 -0.8172 -0.1094 -1.2642
 7841WAT     H223926   4.487   3.844   2.533 -0.3589 -0.1852 -0.2095
 7842WAT      O23927   7.520   1.521   5.446  0.0895 -0.3435  0.2417
 7842WAT     H123928   7.434   1.482   5.462  0.2902 -0.4034  1.2890
 7842WAT     H223929   7.504   1.592   5.384 -0.6811 -0.4986  0.2600
 7843WAT      O23930   3.880   4.154   3.101  0.1466 -0.3257 -0.2487
 7843WAT     H123931   3.844   4.219   3.162 -0.3346  0.1142 -0.9928
 7843WAT     H223932   3.928   4.206   3.037 -1.3379 -0.5555 -1.6180
 7844WAT      O23933   4.383   2.725   2.670  0.4306  0.1171  0.3926
 7844WAT     H123934   4.437   2.727   2.749  2.1873 -1.5044 -0.6760
 7844WAT     H223935   4.295   2.705   2.702  1.3655 -2.0047  1.8900
 7845WAT      O23936   2.532   2.820   5.878 -0.0726  0.5870 -0.1523
 7845WAT     H123937   2.509   2.872   5.955 -2.9655 -0.4365 -0.1960
 7845WAT     H223938   2.509   2.730   5.902  1.7572 -0.2275 -1.2301
 7846WAT      O23939   7.087   2.410   5.043  0.4677  0.8858  0.1305
 7846WAT     H123940   7.036   2.414   5.124 -0.0002 -0.9300 -0.0396
 7846WAT     H223941   7.169   2.366   5.068  0.5091  0.7193 -0.2844
 7847WAT      O23942   7.307   0.359   0.530 -0.1141  0.1763  0.1881
 7847WAT     H123943   7.278   0.341   0.620  1.4781 -0.6612  0.5747
 7847WAT     H223944   7.323   0.273   0.492  3.5243  0.4696  0.6414
 7848WAT      O23945   7.242   0.624   5.853 -0.2933 -0.3698  0.4651
 7848WAT     H123946   7.235   0.678   5.932 -0.6113  0.9801 -0.4440
 7848WAT     H223947   7.153   0.619   5.819 -0.3112 -1.7168  0.6624
 7849WAT      O23948   6.603   0.352   0.463  0.0624  0.8440 -0.2042
 7849WAT     H123949   6.625   0.268   0.422  2.0110  1.8309 -1.3618
 7849WAT     H223950   6.522   0.336   0.511  0.9754 -2.0065  0.5735
 7850WAT      O23951   5.849   1.583   0.521  0.6724 -0.2570  0.0919
 7850WAT     H123952   5.943   1.564   0.525  0.9556  0.9521 -0.3383
 7850WAT     H223953   5.837   1.624   0.436 -0.3306 -0.7448 -0.0167
 7851WAT      O23954   2.955   6.763   6.158 -0.1745 -0.1454  0.1529
 7851WAT     H123955   2.912   6.757   6.072 -0.6254  0.7267  0.3145
 7851WAT     H223956   2.890   6.802   6.215  0.6535  0.7388  0.5169
 7852WAT      O23957   5.494   5.400   4.094  0.6660 -0.0675  0.6094
 7852WAT     H123958   5.419   5.460   4.088  1.5615  0.9912 -0.7504
 7852WAT     H223959   5.542   5.430   4.170  0.0985 -0.3054  1.0734
 7853WAT      O23960   0.836   3.873   4.240  0.2350 -0.1328  0.0370
 7853WAT     H123961   0.797   3.841   4.159  1.3848 -3.4769  0.6103
 7853WAT     H223962   0.921   3.828   4.244 -1.0199 -2.6489  4.4722
 7854WAT      O23963   0.938   3.217   0.908 -0.6375 -0.1875  0.3654
 7854WAT     H123964   0.852   3.175   0.918 -0.2457 -1.8169 -2.3065
 7854WAT     H223965   0.978   3.209   0.995 -2.7031 -0.4237  1.3704
 7855WAT      O23966   1.428   2.780   3.401  0.3229 -0.5307 -0.5749
 7855WAT     H123967   1.354   2.841   3.402  0.9368  0.2339  0.0131
 7855WAT     H223968   1.476   2.800   3.482  0.3620 -2.0414 -0.1981
 7856WAT      O23969   5.482   0.253   4.439 -0.3335 -0.0784  0.3304
 7856WAT     H123970   5.512   0.311   4.369 -1.6994  1.3249  0.8361
 7856WAT     H223971   5.403   0.212   4.404 -1.9158  1.7902  1.4969
 7857WAT      O23972   2.450   6.869   5.186  0.0103  0.6630 -0.2622
 7857WAT     H123973   2.444   6.964   5.174 -0.2809  0.5571 -1.0397
 7857WAT     H223974   2.510   6.858   5.259 -2.1090  1.5235  1.7301
 7858WAT      O23975   4.455   6.552   0.034 -0.0166  0.3471 -0.5837
 7858WAT     H123976   4.366   6.517   0.030 -1.7741  4.3974 -0.9818
 7858WAT     H223977   4.452   6.621   0.100  2.7086  0.9976 -0.9975
 7859WAT      O23978   3.326   4.153   4.479  0.5764 -0.1893 -0.3133
 7859WAT     H123979   3.293   4.166   4.568  0.8993  0.2271 -0.2495
 7859WAT     H223980   3.255   4.182   4.422  1.0746  1.4048 -0.1764
 7860WAT      O23981   3.715   6.236   2.143 -0.3284  0.0407 -0.5798
 7860WAT     H123982   3.661   6.267   2.071 -0.4146  0.5908 -0.2768
 7860WAT     H223983   3.786   6.188   2.100  1.1795  2.6685 -1.2209
 7861WAT      O23984   1.280   5.231   6.080 -0.1304 -0.0372 -0.5834
 7861WAT     H123985   1.200   5.282   6.072 -2.4057 -3.2608  0.0539
 7861WAT     H223986   1.271   5.185   6.163  2.2771 -0.7496 -0.6454
 7862WAT      O23987   4.487   1.720   3.338  0.1743 -0.2276 -0.1991
 7862WAT     H123988   4.532   1.777   3.399  0.5788 -1.5728  0.8084
 7862WAT     H223989   4.495   1.764   3.253  1.5325  0.6021  0.3312
 7863WAT      O23990   1.090   1.070   0.260  0.0029 -0.5822  0.4644
 7863WAT     H123991   1.026   1.134   0.229  0.5629 -0.7726 -1.2159
 7863WAT     H223992   1.168   1.122   0.279  0.8640 -0.8059 -2.0716
 7864WAT      O23993   6.453   0.132   4.786 -0.1340  0.3653  0.4825
 7864WAT     H123994   6.465   0.086   4.869  1.4855 -0.4092 -0.1441
 7864WAT     H223995   6.443   0.224   4.810  0.7220  0.2019  1.5049
 7865WAT      O23996   4.247   3.376   1.921  0.4260  0.3852 -0.3976
 7865WAT     H123997   4.171   3.392   1.977  1.5960 -1.7267  2.0229
 7865WAT     H223998   4.303   3.452   1.934  0.1299  0.4853  0.3730
 7866WAT      O23999   5.085   4.105   4.491 -0.4904  0.1650 -0.1278
 7866WAT     H124000   5.097   4.200   4.496 -2.1568  0.4540 -0.8985
 7866WAT     H224001   5.103   4.074   4.579  0.2948  1.1592  0.0841
 7867WAT      O24002   5.338   4.787   1.546  0.1744  0.0932  0.0137
 7867WAT     H124003   5.299   4.844   1.479 -0.8738  1.0240  1.3492
 7867WAT     H224004   5.377   4.848   1.609  1.5364 -0.7731  0.0473
 7868WAT      O24005   4.712   2.274   0.590  0.3876  0.3475 -0.3737
 7868WAT     H124006   4.723   2.366   0.566 -1.0611  0.2014 -1.7885
 7868WAT     H224007   4.693   2.276   0.684 -1.2295  1.6700 -0.6801
 7869WAT      O24008   5.727   0.470   0.747 -0.1498  0.2434 -0.5418
 7869WAT     H124009   5.718   0.496   0.655 -0.9963  0.9539 -0.2720
 7869WAT     H224010   5.649   0.420   0.765  1.5827 -2.9169 -1.1272
 7870WAT      O24011   5.387   5.800   4.270  0.1646 -0.2360  0.0598
 7870WAT     H124012   5.459   5.743   4.295 -0.1436 -0.7683 -0.2362
 7870WAT     H224013   5.316   5.778   4.330 -1.0422 -2.4961 -2.0048
 7871WAT      O24014   6.991   5.230   2.433  0.1554  0.1031 -0.1124
 7871WAT     H124015   7.003   5.232   2.338 -1.6293  0.1880 -0.3717
 7871WAT     H224016   7.072   5.193   2.467  0.7450 -0.1092 -1.6812
 7872WAT      O24017   3.866   4.402   4.501 -0.2932 -0.0546  0.0042
 7872WAT     H124018   3.838   4.337   4.565 -1.0726  0.5296  0.2740
 7872WAT     H224019   3.821   4.483   4.527  0.4672  0.5321 -0.4647
 7873WAT      O24020   2.968   5.100   0.143 -0.5140  0.1395 -0.2529
 7873WAT     H124021   3.039   5.040   0.165 -1.8104 -0.9805  1.0949
 7873WAT     H224022   2.983   5.177   0.199  0.2137  0.3787 -0.7628
 7874WAT      O24023   7.160   4.749   4.400 -0.6265  0.9705 -0.3128
 7874WAT     H124024   7.153   4.663   4.359  0.8138  0.0364  1.2525
 7874WAT     H224025   7.080   4.757   4.452 -0.2401  0.0105  0.4689
 7875WAT      O24026   5.805   5.443   2.306 -0.0585  0.3358 -0.0332
 7875WAT     H124027   5.881   5.450   2.249  0.8918 -1.5248  0.9221
 7875WAT     H224028   5.816   5.514   2.370  1.1197 -0.1792  0.3542
 7876WAT      O24029   3.836   6.628   1.691  0.4525  0.4529  0.1080
 7876WAT     H124030   3.772   6.698   1.704 -2.7823 -2.4005  0.8610
 7876WAT     H224031   3.847   6.624   1.596  0.1154  1.4799  0.0072
 7877WAT      O24032   7.493   6.399   0.940 -0.4459  0.2428 -0.0005
 7877WAT     H124033   7.525   6.450   1.015 -0.8212 -0.3633  0.5859
 7877WAT     H224034   7.400   6.386   0.958 -0.3486 -0.6669 -0.1247
 7878WAT      O24035   3.357   7.077   1.443  0.6117  0.3111  0.1441
 7878WAT     H124036   3.268   7.054   1.418  0.2697  2.5819 -0.9510
 7878WAT     H224037   3.359   7.065   1.538 -1.2986  1.5352  0.3874
 7879WAT      O24038   7.084   6.813   4.241 -0.1603  0.0255 -0.0044
 7879WAT     H124039   7.099   6.907   4.257  0.3434  0.1194 -0.9326
 7879WAT     H224040   7.127   6.769   4.313  1.4908  0.4474 -0.6856
 7880WAT      O24041   5.846   2.737   2.211 -0.2767  0.3765  0.1448
 7880WAT     H124042   5.929   2.728   2.165 -0.3805 -0.1888  0.0668
 7880WAT     H224043   5.866   2.716   2.302 -0.0742  1.4838  0.3787
 7881WAT      O24044   6.960   0.549   4.915  0.0687 -0.0885  0.4129
 7881WAT     H124045   6.897   0.612   4.880 -0.3845  0.1769  1.6449
 7881WAT     H224046   7.037   0.558   4.858 -1.0089 -0.4714 -1.1650
 7882WAT      O24047   4.073   5.909   5.251  0.2080  0.4493  0.0168
 7882WAT     H124048   4.122   5.864   5.320 -0.3417 -2.9239 -1.5806
 7882WAT     H224049   3.985   5.920   5.288  0.8998  2.4465  1.2438
 7883WAT      O24050   5.580   1.002   2.351  0.6082  0.0787 -0.2543
 7883WAT     H124051   5.518   1.059   2.397  0.6948 -0.8397  1.0595
 7883WAT     H224052   5.560   0.914   2.384  2.8003 -0.2039  0.4588
 7884WAT      O24053   6.472   0.613   1.958 -0.2438 -0.5167 -0.4533
 7884WAT     H124054   6.482   0.570   1.873 -0.2026 -2.3542  0.4366
 7884WAT     H224055   6.554   0.593   2.004 -1.1642 -1.4906  0.8164
 7885WAT      O24056   6.367   6.516   1.428  0.2268 -0.2815  0.0088
 7885WAT     H124057   6.461   6.518   1.411  0.4032  1.2973  0.9871
 7885WAT     H224058   6.351   6.428   1.461  1.2369 -0.7757 -0.7578
 7886WAT      O24059   6.093   1.537   3.034 -0.0797  0.0395  0.4850
 7886WAT     H124060   6.031   1.508   2.967  0.5500  0.4919 -0.3171
 7886WAT     H224061   6.166   1.475   3.026 -0.0980 -0.0341  0.9025
 7887WAT      O24062   0.278   1.219   3.699  0.0744 -0.0079 -0.0256
 7887WAT     H124063   0.346   1.154   3.681  0.1662  0.3227 -0.9699
 7887WAT     H224064   0.251   1.201   3.789 -0.5178 -1.9330 -0.5201
 7888WAT      O24065   5.957   0.939   5.393  0.0245 -0.5350 -0.6729
 7888WAT     H124066   5.909   0.891   5.460 -0.1920 -0.0555 -0.4766
 7888WAT     H224067   6.026   0.986   5.441 -0.6338  0.4515 -0.6635
 7889WAT      O24068   2.947   2.975   2.067 -0.8630 -0.4809 -0.0933
 7889WAT     H124069   2.877   3.037   2.086 -1.7931 -1.3995 -0.4004
 7889WAT     H224070   2.997   3.015   1.995  1.0155  1.7351  2.2393
 7890WAT      O24071   1.762   2.508   1.299  0.2769 -0.1336 -0.3073
 7890WAT     H124072   1.852   2.533   1.319 -0.0066  1.1427 -0.5166
 7890WAT     H224073   1.768   2.456   1.219  0.9270 -0.9965  0.2940
 7891WAT      O24074   4.050   2.058   1.990  0.2198  0.2255 -0.2909
 7891WAT     H124075   4.086   2.001   2.057 -0.4770  0.0437 -0.0594
 7891WAT     H224076   4.025   2.138   2.037  0.0295  0.2250 -0.3889
 7892WAT      O24077   3.687   3.026   1.984  0.0463 -0.6515 -0.5609
 7892WAT     H124078   3.661   3.069   1.903  0.1794  0.1911 -0.1679
 7892WAT     H224079   3.604   3.000   2.025 -0.0549 -0.4180 -0.6160
 7893WAT      O24080   6.885   2.021   5.367  0.0524  0.0147 -0.0698
 7893WAT     H124081   6.855   2.070   5.444 -2.0865  1.3685 -1.6701
 7893WAT     H224082   6.840   1.937   5.373 -0.2939  0.2061  0.0341
 7894WAT      O24083   0.768   6.381   2.605 -0.0266 -0.2660 -0.1238
 7894WAT     H124084   0.842   6.367   2.664  1.0115  0.3048 -1.2549
 7894WAT     H224085   0.692   6.390   2.663  0.8788 -0.2508  1.0864
 7895WAT      O24086   6.897   2.040   3.377 -0.2214 -1.2193  0.6333
 7895WAT     H124087   6.831   2.049   3.309  0.4061 -0.5557  0.0968
 7895WAT     H224088   6.851   2.061   3.458 -0.9469 -1.9010  0.4143
 7896WAT      O24089   3.966   1.134   1.411  0.1764 -0.4390 -0.2787
 7896WAT     H124090   3.904   1.167   1.346  0.1624 -1.2328 -0.6700
 7896WAT     H224091   4.052   1.144   1.370  0.2086 -0.4953 -0.2243
 7897WAT      O24092   0.415   5.295   5.631 -0.0211 -0.0336  0.2599
 7897WAT     H124093   0.400   5.343   5.549 -0.0039 -0.2757  0.1144
 7897WAT     H224094   0.436   5.206   5.603 -1.1062 -0.4062  0.5541
 7898WAT      O24095   4.875   2.347   0.917 -0.4828 -0.0685  0.1184
 7898WAT     H124096   4.871   2.252   0.930 -1.3981  0.2063  2.3110
 7898WAT     H224097   4.785   2.374   0.900 -0.4058  0.5331  0.6241
 7899WAT      O24098   1.102   3.067   0.213 -0.2829 -0.6326 -0.2882
 7899WAT     H124099   1.151   3.092   0.291  1.6886 -1.6595 -1.1153
 7899WAT     H224100   1.011   3.086   0.234  0.3129  0.1013  1.8435
 7900WAT      O24101   3.249   0.986   1.572  0.5418  0.7921  0.0443
 7900WAT     H124102   3.303   1.012   1.647 -0.4847 -1.4014  1.6920
 7900WAT     H224103   3.168   0.953   1.612 -0.6681  0.9357 -2.1533
 7901WAT      O24104   1.097   5.914   4.488  0.1628  0.0030  0.1449
 7901WAT     H124105   1.028   5.892   4.550 -1.7007 -0.4501 -1.9579
 7901WAT     H224106   1.172   5.861   4.515 -1.4340 -2.2542  0.4339
 7902WAT      O24107   1.478   3.969   5.549  0.3773 -0.2359 -0.1886
 7902WAT     H124108   1.488   3.962   5.644  1.3920 -0.4644 -0.3004
 7902WAT     H224109   1.472   4.063   5.533  3.1070  0.0379 -0.1245
 7903WAT      O24110   4.266   5.812   2.101 -0.1931 -0.1364  0.3541
 7903WAT     H124111   4.215   5.735   2.073 -0.4173 -0.0878  0.6209
 7903WAT     H224112   4.211   5.886   2.077  0.2458 -0.0351 -0.3590
 7904WAT      O24113   5.485   5.441   0.372  0.0860 -0.0004  0.3475
 7904WAT     H124114   5.538   5.377   0.323  0.9231  0.7026  0.2998
 7904WAT     H224115   5.397   5.432   0.335  0.6702  0.4279 -1.2399
 7905WAT      O24116   0.323   0.487   2.216  0.1789 -0.0531 -0.1981
 7905WAT     H124117   0.272   0.473   2.296  0.4656 -0.5874 -0.1029
 7905WAT     H224118   0.374   0.566   2.233 -0.3884  0.3184 -0.1825
 7906WAT      O24119   1.434   5.796   2.514  0.1105  0.3488 -0.8143
 7906WAT     H124120   1.501   5.822   2.577 -0.4615 -0.1670  0.0284
 7906WAT     H224121   1.381   5.875   2.501  0.0602  0.3764 -0.4358
 7907WAT      O24122   5.607   2.481   5.518 -0.0421  0.0339  0.0994
 7907WAT     H124123   5.535   2.477   5.455  0.4453 -0.1379 -0.4565
 7907WAT     H224124   5.572   2.441   5.598 -0.5910  0.0426 -0.1336
 7908WAT      O24125   6.693   5.274   1.154  0.4001  0.4526 -0.2446
 7908WAT     H124126   6.631   5.229   1.211  1.6574  0.6219  1.3481
 7908WAT     H224127   6.675   5.367   1.166  0.7133  0.4914 -0.0466
 7909WAT      O24128   3.021   5.796   5.832  0.3471  0.7045 -0.2536
 7909WAT     H124129   2.936   5.788   5.789  0.4470 -1.6370 -0.1167
 7909WAT     H224130   3.043   5.707   5.858  4.0829  0.6827 -2.6985
 7910WAT      O24131   3.463   1.006   2.946  0.3836  0.2939  0.0791
 7910WAT     H124132   3.511   0.951   3.008 -2.6269  0.6902  3.0682
 7910WAT     H224133   3.424   0.944   2.884 -0.9016 -0.8505  1.9012
 7911WAT      O24134   5.161   3.079   1.897  0.3049  0.0056 -0.2464
 7911WAT     H124135   5.227   3.013   1.878  2.5934  2.5133 -1.6733
 7911WAT     H224136   5.172   3.146   1.829 -2.3182  1.5875  0.7018
 7912WAT      O24137   1.264   4.804   1.946  0.9858 -0.5736 -0.2799
 7912WAT     H124138   1.353   4.771   1.957  1.5468  1.2045  1.0077
 7912WAT     H224139   1.218   4.775   2.025  0.8781 -0.1061 -0.1713
 7913WAT      O24140   1.626   4.568   3.090  0.4693 -0.3878  0.5801
 7913WAT     H124141   1.688   4.497   3.105 -0.4026 -0.9317  1.7793
 7913WAT     H224142   1.546   4.525   3.059  0.1993  0.1494  0.5068
 7914WAT      O24143   6.652   6.930   5.657  0.4961 -0.3638  0.1229
 7914WAT     H124144   6.566   6.926   5.614  0.1998  0.1907  0.6439
 7914WAT     H224145   6.670   6.840   5.683 -0.5157 -0.3064  1.1062
 7915WAT      O24146   4.132   1.246   4.736  0.1113 -0.0552  0.1136
 7915WAT     H124147   4.147   1.151   4.736 -0.4125 -0.1762  2.0739
 7915WAT     H224148   4.120   1.268   4.828  0.7540  2.0249 -0.2611
 7916WAT      O24149   6.662   3.380   1.636 -0.5386 -0.4336  0.1451
 7916WAT     H124150   6.676   3.394   1.543  2.2241 -1.1639  0.3548
 7916WAT     H224151   6.604   3.304   1.642 -1.9543  0.5208 -0.9285
 7917WAT      O24152   4.864   5.858   3.913 -0.1729  0.3572 -0.0867
 7917WAT     H124153   4.816   5.916   3.972  0.9132  0.7772  0.4183
 7917WAT     H224154   4.902   5.917   3.848  0.2073  0.1117 -0.0885
 7918WAT      O24155   7.372   4.520   1.466  0.4104 -0.7144 -0.3147
 7918WAT     H124156   7.316   4.506   1.542 -0.0833  2.8512  0.1284
 7918WAT     H224157   7.459   4.491   1.495 -0.2238 -1.6068  0.7553
 7919WAT      O24158   3.670   6.725   4.959 -0.3715 -0.5220  0.0019
 7919WAT     H124159   3.618   6.787   4.908  1.5291  0.7709 -0.4740
 7919WAT     H224160   3.649   6.744   5.050 -2.1765 -1.3956 -0.1808
 7920WAT      O24161   1.020   4.556   3.340 -0.3317  0.7981 -0.0736
 7920WAT     H124162   1.065   4.506   3.272 -0.2998 -0.6125  0.9465
 7920WAT     H224163   1.076   4.547   3.417 -1.0545  1.2477  0.5109
 7921WAT      O24164   3.036   3.062   3.146  0.5279 -0.3755 -0.3846
 7921WAT     H124165   3.037   2.999   3.218 -0.9766  1.4190  1.3326
 7921WAT     H224166   2.946   3.094   3.144  1.3707  2.1929 -0.6730
 7922WAT      O24167   3.566   1.487   2.641  0.6397 -0.0595  0.2720
 7922WAT     H124168   3.520   1.407   2.665 -1.2957  1.2528  1.2478
 7922WAT     H224169   3.563   1.489   2.545 -0.4616 -0.5222  0.2840
 7923WAT      O24170   6.519   3.508   2.913 -0.2537  0.1622 -0.1040
 7923WAT     H124171   6.476   3.572   2.970 -1.6591 -2.6057  2.2316
 7923WAT     H224172   6.600   3.486   2.959  1.0365  1.2755 -1.6958
 7924WAT      O24173   2.688   1.126   1.758 -0.2834  1.1111 -0.3772
 7924WAT     H124174   2.725   1.039   1.774 -2.7109 -0.3478 -2.1764
 7924WAT     H224175   2.743   1.163   1.688  0.5096  0.9111  0.1206
 7925WAT      O24176   0.209   0.426   2.463 -0.6427 -0.4079  0.1969
 7925WAT     H124177   0.168   0.458   2.544  0.7838 -0.0836  0.8164
 7925WAT     H224178   0.143   0.367   2.425 -1.3179 -0.6324  1.6326
 7926WAT      O24179   1.294   5.846   3.933  0.3031  0.3705  0.5354
 7926WAT     H124180   1.251   5.930   3.914 -0.1243 -0.1318 -0.7432
 7926WAT     H224181   1.316   5.852   4.026 -1.3254  1.1858  0.9049
 7927WAT      O24182   1.217   5.818   1.842  0.4687 -0.9978  0.1133
 7927WAT     H124183   1.191   5.729   1.865  0.8864 -1.4558 -1.0976
 7927WAT     H224184   1.147   5.851   1.785  1.3736 -1.4263 -1.3268
 7928WAT      O24185   3.804   1.788   4.279 -0.2124 -0.4703  0.2400
 7928WAT     H124186   3.892   1.820   4.297  0.3774 -1.3050 -0.9996
 7928WAT     H224187   3.816   1.723   4.210 -2.0884  1.2739 -1.8677
 7929WAT      O24188   1.868   5.732   1.239  0.4958 -0.1960 -0.1760
 7929WAT     H124189   1.890   5.749   1.147 -0.0273  1.2760 -0.0532
 7929WAT     H224190   1.777   5.703   1.237 -0.2764  1.9913  0.0112
 7930WAT      O24191   3.230   2.164   3.634 -0.1604 -0.9209 -0.2418
 7930WAT     H124192   3.200   2.086   3.680  0.7107 -1.1446 -0.0417
 7930WAT     H224193   3.326   2.157   3.632 -0.0650  0.1219 -0.2412
 7931WAT      O24194   1.772   5.817   3.384  0.3923 -0.1364  0.2372
 7931WAT     H124195   1.757   5.893   3.442  0.1803  0.4144 -0.5232
 7931WAT     H224196   1.702   5.756   3.408  0.9638 -0.3814  1.3190
 7932WAT      O24197   7.434   3.840   4.720  0.4145 -0.1982  0.0191
 7932WAT     H124198   7.443   3.934   4.705 -0.8950 -0.0141  0.2969
 7932WAT     H224199   7.448   3.829   4.814  2.2351 -0.5220 -0.2551
 7933WAT      O24200   0.597   2.661   0.936  0.6082 -0.1175  0.1184
 7933WAT     H124201   0.626   2.751   0.945  1.4873 -0.1242 -2.1592
 7933WAT     H224202   0.677   2.609   0.942  0.1161 -0.7776  1.3728
 7934WAT      O24203   1.735   0.302   4.157  0.3238  0.0608  0.5566
 7934WAT     H124204   1.656   0.249   4.147  1.1986 -1.2647  0.5407
 7934WAT     H224205   1.702   0.388   4.186 -1.1090 -0.4706  0.5900
 7935WAT      O24206   6.188   4.048   5.706 -0.7917 -0.3277  0.0370
 7935WAT     H124207   6.160   3.957   5.694 -1.5769 -0.4680  2.4699
 7935WAT     H224208   6.263   4.042   5.765 -1.8558  0.6734  1.5412
 7936WAT      O24209   2.644   0.559   0.828 -0.6268 -0.3985 -0.7449
 7936WAT     H124210   2.628   0.524   0.740 -2.3583  0.0346 -0.6386
 7936WAT     H224211   2.640   0.482   0.885 -1.5720 -0.4177 -0.8264
 7937WAT      O24212   4.714   2.469   2.016  0.1367 -0.3622  0.1879
 7937WAT     H124213   4.655   2.515   2.074 -0.6761 -1.2856  0.1217
 7937WAT     H224214   4.800   2.508   2.032 -0.1101 -0.4420  1.8540
 7938WAT      O24215   3.131   3.291   6.211  0.3391 -0.2958 -0.3598
 7938WAT     H124216   3.217   3.250   6.207  0.5900  0.2435 -0.6299
 7938WAT     H224217   3.071   3.226   6.174  0.9770  0.2079 -2.4325
 7939WAT      O24218   3.707   3.976   0.051  0.0742  1.2041 -0.4387
 7939WAT     H124219   3.642   3.907   0.036  0.6526  0.1566  1.4831
 7939WAT     H224220   3.659   4.045   0.097 -0.4960  2.1228 -2.3291
 7940WAT      O24221   4.779   6.451   2.341 -0.1309 -0.4660  0.6906
 7940WAT     H124222   4.796   6.358   2.331 -0.2098 -0.9150  3.6803
 7940WAT     H224223   4.715   6.472   2.273 -1.5028 -3.0248  1.0815
 7941WAT      O24224   3.175   3.789   1.137 -0.3578 -0.3609 -0.7318
 7941WAT     H124225   3.115   3.797   1.211 -0.4864  0.4016 -0.9145
 7941WAT     H224226   3.256   3.755   1.175 -0.5678 -0.4004 -0.3175
 7942WAT      O24227   7.072   7.169   4.808  0.4121 -0.3116 -0.3262
 7942WAT     H124228   7.066   7.170   4.712  0.0953  3.5823 -0.4261
 7942WAT     H224229   7.035   7.252   4.835  0.3883 -1.3320  3.2609
 7943WAT      O24230   6.520   0.172   1.064 -0.5246  0.3980 -0.1765
 7943WAT     H124231   6.449   0.122   1.105  0.3363 -0.3228  0.4777
 7943WAT     H224232   6.595   0.113   1.066  0.0887  1.1302 -0.9057
 7944WAT      O24233   2.588   0.018   5.741  0.2467  0.5306 -0.0182
 7944WAT     H124234   2.576   0.047   5.831  1.3197  0.9147  0.0218
 7944WAT     H224235   2.678  -0.015   5.739 -0.2064 -0.7300 -0.6222
 7945WAT      O24236   7.089   2.762   1.881  0.2967 -0.2676 -0.5271
 7945WAT     H124237   6.994   2.760   1.885  0.3380 -1.9579  0.3100
 7945WAT     H224238   7.109   2.761   1.787 -0.4857  0.6173 -0.7228
 7946WAT      O24239   1.611   5.221   5.048  0.1324  0.2957 -0.1845
 7946WAT     H124240   1.589   5.234   5.141  0.1470  0.8775 -0.2567
 7946WAT     H224241   1.678   5.153   5.049 -1.2523 -1.1348  0.0808
 7947WAT      O24242   1.613   5.672   1.302 -0.2083  0.3455 -0.9472
 7947WAT     H124243   1.570   5.757   1.305 -0.6671  0.0954 -0.0465
 7947WAT     H224244   1.626   5.648   1.394 -1.4904 -1.2587 -1.1373
 7948WAT      O24245   5.983   6.233   0.734  0.6948 -0.4501  0.1642
 7948WAT     H124246   6.075   6.250   0.753  0.3507  0.0210  1.4814
 7948WAT     H224247   5.936   6.258   0.813 -0.5854 -0.6237 -0.5019
 7949WAT      O24248   4.245   1.614   0.992 -0.6747  1.1494  0.2286
 7949WAT     H124249   4.207   1.644   1.075 -0.4491  0.0818  0.7378
 7949WAT     H224250   4.326   1.665   0.983 -1.3646  2.2322 -0.0251
 7950WAT      O24251   5.698   4.701   3.290 -0.4419 -0.1197 -0.1413
 7950WAT     H124252   5.672   4.622   3.337  0.7253  0.0817  0.9060
 7950WAT     H224253   5.714   4.765   3.359  0.0006  0.6034 -0.9024
 7951WAT      O24254   0.272   7.131   5.257 -0.0144  0.2092 -0.0197
 7951WAT     H124255   0.363   7.104   5.253  0.5933  1.7706  1.9776
 7951WAT     H224256   0.264   7.200   5.190  0.3731  0.3598  0.0896
 7952WAT      O24257   1.858   3.800   0.356  0.0521  0.1739 -0.2544
 7952WAT     H124258   1.917   3.725   0.346  0.6937  0.7180 -0.6428
 7952WAT     H224259   1.893   3.848   0.431 -0.5861 -0.1146  0.2336
 7953WAT      O24260   2.471   5.174   0.065 -0.0962 -0.3543 -0.6008
 7953WAT     H124261   2.406   5.180  -0.005 -1.6620 -2.3026  0.5963
 7953WAT     H224262   2.444   5.098   0.117  3.0922 -1.1886  0.0418
 7954WAT      O24263   4.636   4.034   5.407  0.0066 -0.3136  0.2633
 7954WAT     H124264   4.569   4.018   5.473 -0.1671  0.7439  0.3670
 7954WAT     H224265   4.616   3.972   5.337 -0.8297 -0.2948  0.4768
 7955WAT      O24266   2.738   0.864   0.766  0.1246  0.3176  0.4310
 7955WAT     H124267   2.647   0.891   0.761  0.0667  0.2946  1.2409
 7955WAT     H224268   2.788   0.945   0.753  0.0240  0.1852 -0.9860
 7956WAT      O24269   0.537   3.398   2.759  0.0517  0.2848 -0.2378
 7956WAT     H124270   0.632   3.391   2.759 -0.0001 -0.6090  0.0723
 7956WAT     H224271   0.518   3.461   2.829  0.5355  3.3928 -2.6992
 7957WAT      O24272   0.514   2.809   2.148  0.6050  0.6969 -0.2281
 7957WAT     H124273   0.591   2.769   2.188  0.5446  0.1180 -0.6769
 7957WAT     H224274   0.444   2.797   2.213  0.4078 -0.6030 -0.6461
 7958WAT      O24275   2.019   4.823   3.480 -0.0861  0.1181 -0.1038
 7958WAT     H124276   1.943   4.764   3.484 -1.4197  1.7962  0.2522
 7958WAT     H224277   2.065   4.798   3.399 -1.0412 -0.8774 -0.3621
 7959WAT      O24278   7.224   4.672   4.986 -0.0188  0.5658  0.3620
 7959WAT     H124279   7.310   4.660   5.028 -0.2147  0.7693  0.8207
 7959WAT     H224280   7.190   4.754   5.022  0.8492  2.0737 -1.9805
 7960WAT      O24281   3.739   0.213   0.886  0.2108  0.2746 -0.4915
 7960WAT     H124282   3.760   0.268   0.961  2.1555 -0.3431 -0.5261
 7960WAT     H224283   3.824   0.184   0.853 -0.6646 -0.7498 -1.9724
 7961WAT      O24284   6.734   4.493   5.117 -0.0585 -0.0832  0.0359
 7961WAT     H124285   6.703   4.413   5.075 -1.5512 -0.1066  1.1138
 7961WAT     H224286   6.830   4.485   5.116 -0.1585 -1.4910 -0.6018
 7962WAT      O24287   3.322   0.518   3.809  0.0226 -0.3654 -0.4582
 7962WAT     H124288   3.274   0.440   3.783  0.5643 -1.5076  1.6648
 7962WAT     H224289   3.412   0.486   3.825  0.5466  0.9411 -0.6992
 7963WAT      O24290   4.099   6.165   2.895 -0.2235 -0.4829  0.3707
 7963WAT     H124291   4.022   6.183   2.948 -0.1729  0.0732  0.2574
 7963WAT     H224292   4.135   6.084   2.932  0.5662  0.5842  2.0476
 7964WAT      O24293   5.836   6.493   5.200 -0.1627 -0.2208  0.1257
 7964WAT     H124294   5.874   6.417   5.244 -0.1245  0.4324  1.2474
 7964WAT     H224295   5.755   6.511   5.248  0.0729  0.7423  0.1859
 7965WAT      O24296   2.418   2.336   5.343 -0.7035 -0.3496 -0.3041
 7965WAT     H124297   2.510   2.351   5.367 -0.1567 -0.4669 -2.1610
 7965WAT     H224298   2.390   2.265   5.401  0.8417 -1.3201 -0.6666
 7966WAT      O24299   4.967   1.980   4.777  0.2929  0.3575  0.4418
 7966WAT     H124300   4.934   2.064   4.746  1.0448  0.4851 -0.0527
 7966WAT     H224301   5.034   2.003   4.841 -1.6080  0.0975  2.6442
 7967WAT      O24302   0.498   0.538   6.039  0.1692 -0.5069 -0.0347
 7967WAT     H124303   0.540   0.513   6.121 -0.2632 -1.2314 -0.0260
 7967WAT     H224304   0.530   0.474   5.975 -0.2335 -0.5308 -0.2161
 7968WAT      O24305   5.913   2.848   1.580 -0.0319  0.1733  0.0758
 7968WAT     H124306   5.890   2.758   1.606 -0.4160  0.3110  0.2058
 7968WAT     H224307   6.007   2.854   1.600  0.0157 -0.2279 -0.0123
 7969WAT      O24308   3.300   5.477   3.467  0.0653 -0.3947 -0.0397
 7969WAT     H124309   3.220   5.481   3.414  0.3926 -1.1193 -0.5996
 7969WAT     H224310   3.347   5.558   3.446 -0.6278  0.1550  0.4780
 7970WAT      O24311   6.793   2.853   3.901  0.2868  0.1444 -0.1930
 7970WAT     H124312   6.869   2.851   3.844 -0.2582 -1.2635 -0.9187
 7970WAT     H224313   6.802   2.775   3.956 -1.3929 -0.9419 -1.3664
 7971WAT      O24314   3.551   3.924   4.060  0.1743 -0.6556  0.3954
 7971WAT     H124315   3.505   4.006   4.077  1.7020 -0.0782  2.1270
 7971WAT     H224316   3.520   3.864   4.128  0.0020 -1.1098 -0.0796
 7972WAT      O24317   7.460   3.598   4.586 -0.5407  0.0389  0.5081
 7972WAT     H124318   7.458   3.689   4.616 -4.0941  0.1678  0.2930
 7972WAT     H224319   7.442   3.546   4.664  0.8715 -0.4837  0.5139
 7973WAT      O24320   2.817   4.915   1.470 -0.0207  0.0901 -0.8038
 7973WAT     H124321   2.893   4.908   1.527  0.6114  1.4431 -1.4435
 7973WAT     H224322   2.802   4.826   1.438  1.9310 -0.0236 -1.4774
 7974WAT      O24323   4.951   5.810   5.150 -0.2659  0.0607 -0.5646
 7974WAT     H124324   5.034   5.838   5.188 -0.0290 -2.0131  0.5526
 7974WAT     H224325   4.889   5.878   5.177  0.1443 -0.6792  2.6323
 7975WAT      O24326   7.335   3.711   5.862  0.8473 -0.1374 -0.1229
 7975WAT     H124327   7.379   3.715   5.947 -0.4832  0.1506  0.5749
 7975WAT     H224328   7.268   3.643   5.873 -0.1290  0.7397 -0.5442
 7976WAT      O24329   5.547   7.007   3.508 -0.3448  0.2279 -0.2604
 7976WAT     H124330   5.593   7.080   3.550 -0.5443  0.2934 -0.1563
 7976WAT     H224331   5.501   6.963   3.580  0.7871 -0.7625 -0.1130
 7977WAT      O24332   4.641   4.570   1.690  0.2333 -0.0822 -0.5570
 7977WAT     H124333   4.660   4.551   1.782 -0.6587 -1.1932 -0.5674
 7977WAT     H224334   4.694   4.647   1.669 -0.0382  0.5799  1.0610
 7978WAT      O24335   2.187   1.494   1.735 -0.1759 -0.0800  0.5754
 7978WAT     H124336   2.145   1.580   1.729 -0.9766 -0.4165  1.1906
 7978WAT     H224337   2.114   1.432   1.734  0.4381 -0.8558 -1.4872
 7979WAT      O24338   6.410   0.486   0.054 -0.1052  0.2940 -0.6514
 7979WAT     H124339   6.336   0.548   0.058 -0.0389  0.4327 -1.4282
 7979WAT     H224340   6.478   0.528   0.106 -0.1658  0.7405 -0.9202
 7980WAT      O24341   2.488   5.838   1.852 -0.2771  0.0387  0.1691
 7980WAT     H124342   2.519   5.751   1.823  1.1327  1.0279 -1.5159
 7980WAT     H224343   2.447   5.875   1.774 -2.3375  0.3132  1.3175
 7981WAT      O24344   6.392   1.122   1.501  0.0448 -0.1175 -0.4462
 7981WAT     H124345   6.452   1.177   1.551  0.6912  0.3892 -1.7379
 7981WAT     H224346   6.335   1.082   1.568  1.1909  0.1272  0.7226
 7982WAT      O24347   4.298   3.000   4.867  0.1336 -0.0211  0.1914
 7982WAT     H124348   4.359   2.948   4.815 -0.3762 -0.8437  0.3864
 7982WAT     H224349   4.232   3.029   4.803  0.6101  0.6956  0.0180
 7983WAT      O24350   2.689   2.148   2.191 -1.1547  0.6371 -0.1156
 7983WAT     H124351   2.653   2.073   2.238  1.6443 -1.5802 -1.2550
 7983WAT     H224352   2.725   2.204   2.260  0.4366 -1.1994  0.6524
 7984WAT      O24353   0.849   4.466   4.172  0.1685  0.0641 -0.0821
 7984WAT     H124354   0.775   4.418   4.137  0.2399 -0.3045  0.2606
 7984WAT     H224355   0.816   4.554   4.187  0.1332  0.2207 -1.0468
 7985WAT      O24356   3.263   5.623   1.143  0.5747  0.2614  0.1172
 7985WAT     H124357   3.325   5.598   1.074  1.6263 -1.0974  1.5006
 7985WAT     H224358   3.178   5.625   1.099  1.3540  0.4728 -1.4422
 7986WAT      O24359   7.592   4.354   1.539  0.5013 -0.4845  0.0207
 7986WAT     H124360   7.656   4.391   1.599 -1.1088  1.1732  0.8264
 7986WAT     H224361   7.547   4.286   1.589  0.3724 -0.3547  0.0808
 7987WAT      O24362   7.538   5.205   2.730  0.3560 -0.0392 -0.1051
 7987WAT     H124363   7.584   5.288   2.741 -0.0871  0.2059 -0.0590
 7987WAT     H224364   7.460   5.213   2.785  0.5133 -0.6439  0.2147
 7988WAT      O24365   5.922   1.745   2.521  0.0949  0.0907  0.3498
 7988WAT     H124366   5.982   1.671   2.511  0.8459  0.7935 -0.4757
 7988WAT     H224367   5.942   1.780   2.608  1.1095  0.5040 -0.0348
 7989WAT      O24368   4.232   0.826   4.040  0.2460  0.3616 -0.1193
 7989WAT     H124369   4.231   0.736   4.075 -0.4281  0.1802 -0.5942
 7989WAT     H224370   4.253   0.815   3.947  0.3753  0.7186 -0.1327
 7990WAT      O24371   0.450   1.392   0.956  0.2501 -0.3715  0.0608
 7990WAT     H124372   0.505   1.458   1.000  0.2972 -0.3463 -0.0357
 7990WAT     H224373   0.500   1.311   0.964 -0.1934 -0.5731  0.9278
 7991WAT      O24374   3.341   1.653   5.347  0.4026  0.3390 -0.4849
 7991WAT     H124375   3.424   1.666   5.393  0.1003  0.1736  0.1108
 7991WAT     H224376   3.293   1.591   5.402 -0.8248  1.7260  0.0763
 7992WAT      O24377   6.178   6.051   5.571  0.2969  0.1565  0.6185
 7992WAT     H124378   6.140   5.983   5.627  0.6288 -0.2620  0.3473
 7992WAT     H224379   6.269   6.057   5.600  0.5863 -0.3591 -0.1369
 7993WAT      O24380   3.426   4.029   0.422  0.0543 -0.2343 -0.3821
 7993WAT     H124381   3.463   4.095   0.364 -2.1969  0.3871 -1.2006
 7993WAT     H224382   3.452   3.945   0.383 -1.8968  0.1436 -2.7453
 7994WAT      O24383   2.762   6.422   2.407  0.6731 -0.5869 -0.7389
 7994WAT     H124384   2.821   6.460   2.472  0.0908 -0.6436 -0.1703
 7994WAT     H224385   2.813   6.422   2.326  1.0373  0.4797 -0.5297
 7995WAT      O24386   1.093   4.725   2.719 -0.3712  0.0628 -0.1425
 7995WAT     H124387   1.172   4.672   2.722 -0.8721 -0.7070 -0.3270
 7995WAT     H224388   1.113   4.802   2.773 -0.6055 -1.6322  2.5161
 7996WAT      O24389   1.278   7.209   2.670 -0.1294  0.7775 -0.0842
 7996WAT     H124390   1.228   7.285   2.697  0.8778  1.1298  0.8688
 7996WAT     H224391   1.369   7.236   2.680  0.3437  0.6798 -3.1806
 7997WAT      O24392   0.371   4.883   2.883 -0.1106 -0.3503 -0.1267
 7997WAT     H124393   0.332   4.837   2.809 -0.2919  0.1632 -0.3585
 7997WAT     H224394   0.465   4.869   2.874 -0.2716 -2.9862  1.3545
 7998WAT      O24395   5.289   2.797   3.121 -0.1917 -0.3438 -0.4287
 7998WAT     H124396   5.327   2.719   3.161 -0.8019 -1.0557 -1.2047
 7998WAT     H224397   5.337   2.807   3.038 -0.2718 -0.0231 -0.4374
 7999WAT      O24398   2.100   4.576   4.661 -0.1456  0.2028  0.0119
 7999WAT     H124399   2.016   4.574   4.615 -0.9616 -0.5521  1.4935
 7999WAT     H224400   2.141   4.657   4.630 -2.1154  1.4444  0.4426
 8000WAT      O24401   5.958   6.351   3.168 -0.2406  0.0394 -0.6529
 8000WAT     H124402   6.044   6.315   3.190  0.0952  1.6249  0.8180
 8000WAT     H224403   5.956   6.437   3.210 -2.7320 -0.1444 -0.2304
 8001WAT      O24404   5.921   6.568   2.702 -0.2827  0.2878 -0.2642
 8001WAT     H124405   5.860   6.560   2.775  0.5284 -0.9146  0.3244
 8001WAT     H224406   5.884   6.513   2.634 -0.5649  0.6683 -0.4182
 8002WAT      O24407   0.680   1.714   4.475  0.1657 -0.2143  0.3051
 8002WAT     H124408   0.720   1.705   4.561 -0.3823 -0.5192  0.5342
 8002WAT     H224409   0.589   1.686   4.488 -0.8253  2.6792  0.3349
 8003WAT      O24410   3.333   4.904   3.548  0.6375  0.0961  0.2702
 8003WAT     H124411   3.250   4.873   3.584 -0.4070  0.8554 -1.4104
 8003WAT     H224412   3.398   4.845   3.586 -0.5441 -0.0186  2.2611
 8004WAT      O24413   0.524   1.609   4.253  0.3922 -0.0839  0.7756
 8004WAT     H124414   0.549   1.561   4.174 -2.2661 -0.2631 -0.0625
 8004WAT     H224415   0.533   1.544   4.324  2.2624 -0.0779  0.5945
 8005WAT      O24416   5.152   0.257   5.448  0.1737  0.2274 -0.1158
 8005WAT     H124417   5.229   0.209   5.478  0.4255  1.1744  0.8483
 8005WAT     H224418   5.120   0.208   5.373  0.9588 -0.9004  0.2637
 8006WAT      O24419   6.862   1.852   4.339 -0.0869 -0.6165  0.6013
 8006WAT     H124420   6.908   1.791   4.397  2.7852  1.4592  0.7306
 8006WAT     H224421   6.835   1.924   4.397  0.4024  0.2111 -0.1810
 8007WAT      O24422   3.005   1.008   0.898  0.1748  0.1918 -0.5693
 8007WAT     H124423   3.033   0.981   0.985  0.3940  0.8398 -0.4329
 8007WAT     H224424   3.077   0.983   0.840  0.4814  0.6896 -0.4082
 8008WAT      O24425   6.423   0.883   2.082 -0.1059 -0.0723  0.3125
 8008WAT     H124426   6.423   0.809   2.022 -0.4289 -0.3065  0.5952
 8008WAT     H224427   6.431   0.844   2.169  2.2623  0.3554  0.3516
 8009WAT      O24428   4.150   0.805   5.756  0.6858  0.2221  0.4718
 8009WAT     H124429   4.167   0.811   5.850 -0.8648 -1.6352  0.9304
 8009WAT     H224430   4.113   0.718   5.744  1.5964  0.1038 -2.0049
 8010WAT      O24431   0.433   3.084   4.465 -0.2697 -0.0170  0.2287
 8010WAT     H124432   0.453   3.148   4.533  2.5808  1.0936 -1.4707
 8010WAT     H224433   0.361   3.123   4.415 -2.9196 -1.1706  2.8165
 8011WAT      O24434   1.163   4.702   2.189  0.0096  0.6666 -0.5455
 8011WAT     H124435   1.110   4.773   2.225 -0.1505  0.8582 -1.1623
 8011WAT     H224436   1.160   4.634   2.257 -0.7980  0.7847 -0.4544
 8012WAT      O24437   3.876   2.318   0.197  0.0850 -0.1523 -0.3303
 8012WAT     H124438   3.961   2.275   0.189  0.8776  1.5045 -1.4047
 8012WAT     H224439   3.891   2.391   0.257 -0.3041  0.7185 -1.2558
 8013WAT      O24440   5.956   2.361   2.229  0.4439  0.0439 -0.2145
 8013WAT     H124441   5.925   2.421   2.297  0.8191 -0.6051  0.5439
 8013WAT     H224442   5.877   2.333   2.183  0.3491  2.0261 -1.3758
 8014WAT      O24443   3.158   2.343   6.058  0.3540 -0.2299  0.3281
 8014WAT     H124444   3.189   2.349   6.149 -1.8923 -0.0120  1.1430
 8014WAT     H224445   3.069   2.308   6.065 -0.8155  2.0766 -1.5573
 8015WAT      O24446   0.971   6.980   2.120 -0.3908 -0.5093  0.3599
 8015WAT     H124447   1.060   7.010   2.102  0.1670 -0.4044  2.9090
 8015WAT     H224448   0.983   6.901   2.172 -1.8547 -2.0878 -1.5368
 8016WAT      O24449   3.514   0.314   4.484  0.0098 -0.2958  0.2022
 8016WAT     H124450   3.506   0.247   4.552  0.8229  1.0861  1.7349
 8016WAT     H224451   3.594   0.290   4.437  1.4714  0.6497  2.0628
 8017WAT      O24452   7.106   0.690   2.788  0.2533  0.1739  0.1369
 8017WAT     H124453   7.147   0.733   2.863  0.9276  0.6379 -0.4837
 8017WAT     H224454   7.175   0.637   2.749 -0.3840 -0.9203  0.4664
 8018WAT      O24455   7.448   5.453   0.462  0.2956  0.1787 -0.2758
 8018WAT     H124456   7.447   5.404   0.545  1.6908 -0.4929 -0.6327
 8018WAT     H224457   7.519   5.516   0.472  0.2715  0.3001 -0.8473
 8019WAT      O24458   2.170   0.337   1.688  0.0412  0.1063  0.1181
 8019WAT     H124459   2.145   0.372   1.603  0.9167  0.3777 -0.0294
 8019WAT     H224460   2.089   0.339   1.739  0.1431  2.9224  0.3268
 8020WAT      O24461   0.929   4.619   3.035  0.8777 -0.0109 -0.0234
 8020WAT     H124462   0.903   4.703   3.072  1.9169  0.0937  0.5025
 8020WAT     H224463   0.847   4.579   3.006  0.3569  1.1192 -0.1596
 8021WAT      O24464   7.226   4.997   2.342  0.0838  0.3335 -0.5391
 8021WAT     H124465   7.306   5.006   2.290 -0.6659  0.6786 -1.6850
 8021WAT     H224466   7.242   5.051   2.420  1.8398 -1.4354  0.4164
 8022WAT      O24467   2.551   0.066   2.515 -0.8076  0.7315  0.4068
 8022WAT     H124468   2.553   0.115   2.433  0.8262  1.6953  0.9741
 8022WAT     H224469   2.606  -0.011   2.498  1.1213  1.8853  1.1031
 8023WAT      O24470   1.155   4.370   3.758 -0.2145 -0.7868 -0.0937
 8023WAT     H124471   1.228   4.423   3.789 -1.8320  1.0977  0.7267
 8023WAT     H224472   1.098   4.359   3.834 -1.8405 -0.3136 -1.1717
 8024WAT      O24473   5.204   0.247   2.201 -0.3143 -0.4301 -0.1418
 8024WAT     H124474   5.120   0.267   2.160  0.1892 -1.3665 -1.7249
 8024WAT     H224475   5.222   0.156   2.178  1.4109 -0.0837 -0.3664
 8025WAT      O24476   0.048   2.738   0.485  0.1712  0.8662 -0.2549
 8025WAT     H124477  -0.001   2.753   0.566  0.9549  1.1017  0.1917
 8025WAT     H224478   0.128   2.791   0.496  0.5510  0.4441 -0.9344
 8026WAT      O24479   6.184   0.662   1.832  0.0668 -0.8587  0.2810
 8026WAT     H124480   6.279   0.653   1.844  0.0565 -0.0859  1.0124
 8026WAT     H224481   6.149   0.670   1.921 -0.9979 -3.7361  0.2260
 8027WAT      O24482   2.492   2.379   1.850  0.1413  0.3214 -0.0818
 8027WAT     H124483   2.455   2.304   1.805 -1.3038 -0.3140  2.0485
 8027WAT     H224484   2.570   2.345   1.894 -1.3872 -0.4428  2.2183
 8028WAT      O24485   1.377   5.578   4.590 -0.4335  0.0808 -0.0538
 8028WAT     H124486   1.331   5.505   4.546  0.7253 -0.3742 -0.5474
 8028WAT     H224487   1.463   5.542   4.611 -0.0904  1.1120  0.3191
 8029WAT      O24488   6.620   5.539   1.243 -0.2297 -0.5403  0.4937
 8029WAT     H124489   6.529   5.567   1.233 -0.1371 -0.3716  0.0757
 8029WAT     H224490   6.639   5.553   1.335 -0.7806 -1.0522  0.6905
 8030WAT      O24491   2.379   2.653   1.880 -0.1089 -0.9085  0.6632
 8030WAT     H124492   2.423   2.583   1.831 -0.1045  0.9805 -2.3316
 8030WAT     H224493   2.286   2.633   1.871 -0.1112 -0.5526 -0.2443
 8031WAT      O24494   3.821   4.573   4.117 -0.2667  0.1223 -0.0961
 8031WAT     H124495   3.917   4.568   4.120 -0.2847 -0.5540 -0.4522
 8031WAT     H224496   3.792   4.495   4.164 -0.6392 -0.1935 -0.8467
 8032WAT      O24497   4.797   4.141   3.120 -0.1058 -0.1440  0.4202
 8032WAT     H124498   4.787   4.058   3.167 -0.1017 -1.5122 -1.8222
 8032WAT     H224499   4.707   4.168   3.099 -0.0980  0.3218  0.9741
 8033WAT      O24500   2.533   0.398   4.758 -0.2042  0.2775  0.5262
 8033WAT     H124501   2.493   0.484   4.749 -0.0236  0.6439  2.6894
 8033WAT     H224502   2.610   0.413   4.813  1.8286 -0.7380 -1.8170
 8034WAT      O24503   1.130  -0.002   5.773  0.3082 -0.6319  0.4638
 8034WAT     H124504   1.168   0.037   5.852  2.4389 -1.8618  0.1061
 8034WAT     H224505   1.160   0.054   5.702  5.0932 -3.6419 -0.3084
 8035WAT      O24506   4.197   6.354   2.382  0.3221  0.1880 -0.3109
 8035WAT     H124507   4.277   6.406   2.394  0.1558  0.4553 -0.3487
 8035WAT     H224508   4.228   6.264   2.376  0.6685  0.3366 -0.8380
 8036WAT      O24509   5.774   4.714   4.599 -0.3536 -0.4964 -0.1519
 8036WAT     H124510   5.866   4.688   4.612 -0.4946 -1.1710 -0.4584
 8036WAT     H224511   5.779   4.788   4.538  0.0072 -0.3595  0.0409
 8037WAT      O24512   6.443   4.120   0.917  0.4095 -0.0338 -0.7229
 8037WAT     H124513   6.532   4.116   0.951  0.4086 -0.3122 -0.7554
 8037WAT     H224514   6.446   4.074   0.833  0.2339 -0.0472 -0.7230
 8038WAT      O24515   2.121   0.403   1.430 -0.6536  0.4282 -0.7124
 8038WAT     H124516   2.179   0.369   1.362  1.5919  2.0897  0.2658
 8038WAT     H224517   2.104   0.494   1.404 -1.6176  0.4033 -0.1982
 8039WAT      O24518   4.614   2.832   0.264  0.0584 -0.0409 -1.1817
 8039WAT     H124519   4.635   2.742   0.290  0.5215  0.7459  1.5789
 8039WAT     H224520   4.518   2.835   0.260 -0.0204 -0.4179 -0.0638
 8040WAT      O24521   6.438   1.519   3.127 -0.4034  0.1325 -0.6376
 8040WAT     H124522   6.426   1.609   3.097  1.0374  0.7869  0.6250
 8040WAT     H224523   6.383   1.512   3.205 -0.2874  0.0146 -0.5660
 8041WAT      O24524   5.079   0.391   4.450  0.4889  0.5384 -0.3203
 8041WAT     H124525   5.151   0.390   4.514 -0.2903 -0.7936  0.5856
 8041WAT     H224526   5.123   0.381   4.365  1.5287  2.1686 -0.0122
 8042WAT      O24527   0.858   7.022   1.350 -0.2814  0.0576 -0.3038
 8042WAT     H124528   0.943   7.021   1.392 -0.1607  0.7006 -0.5114
 8042WAT     H224529   0.811   7.094   1.393 -0.5182  0.0552 -0.5552
 8043WAT      O24530   4.292   0.569   4.173 -0.0748  0.0548 -0.1161
 8043WAT     H124531   4.360   0.553   4.108 -0.1603 -1.6923  0.1622
 8043WAT     H224532   4.336   0.559   4.257 -0.5021 -0.3454  0.0658
 8044WAT      O24533   1.818   4.980   1.277 -0.1296 -0.9938  0.0353
 8044WAT     H124534   1.736   4.945   1.311  0.1778  0.2020  2.2001
 8044WAT     H224535   1.807   5.075   1.282  1.2711 -0.8132  0.1316
 8045WAT      O24536   3.447   4.510   5.182 -0.3075  0.5436 -0.1200
 8045WAT     H124537   3.430   4.417   5.202  2.9622  0.2963  2.4878
 8045WAT     H224538   3.394   4.557   5.245 -0.8078  0.3722 -0.4107
 8046WAT      O24539   3.474   2.704   2.965  0.0534 -0.0538 -0.0454
 8046WAT     H124540   3.442   2.752   3.041  0.1613 -0.3770  0.2083
 8046WAT     H224541   3.540   2.644   3.001  0.6421  0.3063 -0.4945
 8047WAT      O24542   3.383   5.604   5.155 -0.1750  0.2500  0.3139
 8047WAT     H124543   3.455   5.563   5.203 -1.3467  2.6773  4.6890
 8047WAT     H224544   3.312   5.541   5.159  0.3654 -0.3986 -0.1028
 8048WAT      O24545   5.628   5.881   1.992  0.3772  0.5522 -0.3355
 8048WAT     H124546   5.554   5.932   1.959 -0.4305 -0.2449  0.1961
 8048WAT     H224547   5.704   5.916   1.946 -0.2474  1.7709 -0.4760
 8049WAT      O24548   5.153   7.122   3.609  0.1362  0.2336  0.3446
 8049WAT     H124549   5.106   7.205   3.608  1.2780  0.8904 -0.3811
 8049WAT     H224550   5.227   7.137   3.667  0.6829 -0.0829 -0.2652
 8050WAT      O24551   4.512   2.769   2.904 -0.4284  0.2820 -0.3771
 8050WAT     H124552   4.543   2.854   2.934  2.1097 -0.2422 -1.2325
 8050WAT     H224553   4.510   2.714   2.982 -1.6885  0.9733  0.1057
 8051WAT      O24554   2.109   4.651   4.955 -0.1948 -0.5643  0.3435
 8051WAT     H124555   2.115   4.621   4.864  0.9423  1.0472 -0.1520
 8051WAT     H224556   2.144   4.579   5.006  0.7921 -0.8272 -0.6561
 8052WAT      O24557   1.618   2.337   3.604  0.0824  0.1166  0.4312
 8052WAT     H124558   1.669   2.386   3.668  0.7457  0.0839 -0.0616
 8052WAT     H224559   1.557   2.284   3.656 -0.4725  1.2573  0.9777
 8053WAT      O24560   7.644   0.263   4.699 -0.0150 -0.1268 -0.6535
 8053WAT     H124561   7.575   0.269   4.765  0.3078 -0.1435 -0.3099
 8053WAT     H224562   7.600   0.284   4.616 -0.9596 -2.5386 -0.8191
 8054WAT      O24563   2.264   0.587   0.039  0.2082 -0.1643 -0.5158
 8054WAT     H124564   2.279   0.627   0.125  1.2691  0.4500 -0.9700
 8054WAT     H224565   2.323   0.512   0.037 -2.1506 -2.2050  0.5451
 8055WAT      O24566   4.048   0.578   3.677  0.5888 -0.7039 -0.0949
 8055WAT     H124567   4.085   0.548   3.761 -0.0729  0.2113  0.5420
 8055WAT     H224568   4.083   0.667   3.666 -0.7978 -0.1086  0.1476
 8056WAT      O24569   4.336   0.458   2.710  0.2523 -0.7645 -0.2354
 8056WAT     H124570   4.341   0.378   2.762 -0.5143  0.6097  2.1184
 8056WAT     H224571   4.428   0.484   2.697  0.4783 -0.2504  2.0108
 8057WAT      O24572   2.847   7.212   3.898 -0.6200 -0.1658  0.1643
 8057WAT     H124573   2.751   7.215   3.890 -0.5084  1.8316 -1.5147
 8057WAT     H224574   2.866   7.269   3.973 -0.7162  0.3942 -0.2298
 8058WAT      O24575   6.569   4.989   5.105 -0.6950 -0.1524  0.3775
 8058WAT     H124576   6.632   5.021   5.170  0.3801  0.0395 -0.7213
 8058WAT     H224577   6.560   4.896   5.125 -0.0162 -0.1953  0.5217
 8059WAT      O24578   4.663   3.844   5.675 -0.1606 -0.0089  0.4617
 8059WAT     H124579   4.717   3.910   5.717 -0.6719  0.2788  0.6690
 8059WAT     H224580   4.581   3.888   5.655 -0.4462 -0.5284  0.4501
 8060WAT      O24581   5.366   7.171   3.355  0.1201  0.5204  0.2662
 8060WAT     H124582   5.366   7.257   3.396  0.7360  0.0469  1.3113
 8060WAT     H224583   5.425   7.119   3.409 -0.9285 -0.8118  0.1875
 8061WAT      O24584   1.658   1.976   1.661  0.6337  0.4697 -0.3682
 8061WAT     H124585   1.700   2.036   1.724  2.0071 -0.6767 -0.1444
 8061WAT     H224586   1.567   2.006   1.657 -0.2276 -0.8325  4.0531
 8062WAT      O24587   0.387   6.881   4.960 -0.1702  0.0798 -0.1754
 8062WAT     H124588   0.384   6.923   4.874 -0.0794  0.2712 -0.0856
 8062WAT     H224589   0.434   6.943   5.015  0.4535 -0.3832 -0.1737
 8063WAT      O24590   7.118   5.346   3.915 -0.6735 -0.8217 -1.0621
 8063WAT     H124591   7.208   5.348   3.947 -0.4068  1.1249 -1.8034
 8063WAT     H224592   7.071   5.295   3.980  0.6063 -0.2750  0.3617
 8064WAT      O24593   2.897   3.660   1.526 -0.8265  0.1871  0.6176
 8064WAT     H124594   2.933   3.598   1.589 -1.1657 -0.1701  0.4659
 8064WAT     H224595   2.806   3.632   1.514 -0.4570 -0.4311 -0.8788
 8065WAT      O24596   0.748   5.171   1.283 -0.2064  0.4113  0.4840
 8065WAT     H124597   0.721   5.245   1.337  1.5890 -0.3600  2.6207
 8065WAT     H224598   0.810   5.123   1.338 -0.8443 -2.3598 -1.0410
 8066WAT      O24599   6.250   4.167   3.591  0.0415 -0.1862 -0.1518
 8066WAT     H124600   6.191   4.104   3.631  0.9241 -1.4332 -0.7481
 8066WAT     H224601   6.202   4.201   3.516 -0.4791 -0.0512  0.2349
 8067WAT      O24602   2.651   0.151   5.288 -0.0879  0.8944  0.3009
 8067WAT     H124603   2.667   0.058   5.306 -1.9227  0.2074 -1.2139
 8067WAT     H224604   2.632   0.190   5.373  0.4054 -0.1877  0.9247
 8068WAT      O24605   2.494   2.794   0.543 -0.4653 -0.5830  0.5897
 8068WAT     H124606   2.486   2.705   0.577  2.3493 -0.4817  1.7551
 8068WAT     H224607   2.482   2.850   0.620  0.2081 -0.0690  0.3300
 8069WAT      O24608   3.367   2.407   0.951  0.0808 -0.2333  0.4251
 8069WAT     H124609   3.375   2.495   0.986 -0.5755 -0.6527  1.6865
 8069WAT     H224610   3.277   2.380   0.973  0.5478 -1.5304  0.8329
 8070WAT      O24611   7.488   4.178   5.974  0.0483 -0.5994 -0.1082
 8070WAT     H124612   7.428   4.251   5.957 -1.2524 -1.3922  0.9087
 8070WAT     H224613   7.481   4.163   6.068  1.7125 -0.8573 -0.0125
 8071WAT      O24614   2.166   6.912   5.643  0.3923  0.0976  0.2209
 8071WAT     H124615   2.209   6.925   5.728 -0.3916 -2.1919  1.0284
 8071WAT     H224616   2.078   6.949   5.655  0.5419  0.4987  0.1162
 8072WAT      O24617   4.532   4.640   0.868  0.1983 -0.3694  0.1283
 8072WAT     H124618   4.617   4.623   0.827  0.0098 -0.5157 -0.2039
 8072WAT     H224619   4.539   4.602   0.955  0.0672 -1.4152 -0.3064
 8073WAT      O24620   1.306   3.163   5.264 -0.1159 -0.1126 -0.1041
 8073WAT     H124621   1.260   3.098   5.317 -0.5328  0.7329  0.5952
 8073WAT     H224622   1.373   3.112   5.218 -0.3385 -1.0177  0.5315
 8074WAT      O24623   6.400   6.124   3.601  0.0571 -0.3560 -0.7594
 8074WAT     H124624   6.447   6.114   3.683 -0.6902 -1.2036 -0.4133
 8074WAT     H224625   6.424   6.211   3.569 -0.5023  0.4545  0.9206
 8075WAT      O24626   3.959   2.405   4.736 -0.1540  0.2304 -0.3341
 8075WAT     H124627   3.950   2.488   4.782 -2.0594  2.7261 -4.5870
 8075WAT     H224628   4.044   2.412   4.692 -1.1082  0.8948 -2.1686
 8076WAT      O24629   1.486   0.966   4.697 -0.4488 -0.5656 -0.1480
 8076WAT     H124630   1.449   1.050   4.671  0.0575 -0.1997  0.2826
 8076WAT     H224631   1.417   0.903   4.679 -1.8990  0.2664  2.0448
 8077WAT      O24632   1.021   2.141   5.124  0.1150 -0.4139 -0.1125
 8077WAT     H124633   1.020   2.058   5.172  0.3702  0.1079  0.8323
 8077WAT     H224634   0.988   2.205   5.187  1.1836  0.4246 -0.3686
 8078WAT      O24635   2.325   1.994   0.226 -0.1136  0.5433  0.4487
 8078WAT     H124636   2.294   1.908   0.196 -0.7996  0.0514  2.3805
 8078WAT     H224637   2.276   2.057   0.174  0.8222 -0.1902 -1.4191
 8079WAT      O24638   6.876   0.198   6.117  0.0756  0.2877  0.1723
 8079WAT     H124639   6.949   0.199   6.055 -0.2848 -2.1222 -0.3860
 8079WAT     H224640   6.866   0.290   6.143  0.1107  1.5214 -3.4884
 8080WAT      O24641   6.759   6.865   6.112 -0.6978 -0.2135 -0.0718
 8080WAT     H124642   6.685   6.857   6.172 -0.9600  1.2255 -0.1788
 8080WAT     H224643   6.737   6.939   6.056  1.9446  2.0607  1.5978
 8081WAT      O24644   0.532   2.471   2.039 -0.0771  0.1221 -0.0169
 8081WAT     H124645   0.584   2.547   2.014 -0.1793  0.2167  0.0604
 8081WAT     H224646   0.581   2.396   2.004 -0.4529  0.2828 -0.8993
 8082WAT      O24647   2.925   0.732   3.633  0.2454  0.5757 -0.3271
 8082WAT     H124648   2.879   0.687   3.704 -0.1437  1.0834 -0.2622
 8082WAT     H224649   2.899   0.823   3.641  1.6969  0.9799  0.0655
 8083WAT      O24650   2.090   4.304   5.524  0.3862 -0.0502 -0.2227
 8083WAT     H124651   2.098   4.305   5.619 -0.8236 -2.4370 -0.0423
 8083WAT     H224652   2.027   4.373   5.504 -0.0851 -0.1797  0.7922
 8084WAT      O24653   0.162   7.044   3.124  0.1043  0.0041  0.6452
 8084WAT     H124654   0.136   7.028   3.215 -1.2181  0.3626  0.3589
 8084WAT     H224655   0.215   6.968   3.100 -1.1613 -1.0701  1.1202
 8085WAT      O24656   3.505   3.016   1.429  0.1040  0.1599 -0.2375
 8085WAT     H124657   3.496   2.967   1.347  0.6615 -0.3472  0.0040
 8085WAT     H224658   3.415   3.030   1.458 -0.0731 -0.4481 -0.4756
 8086WAT      O24659   4.954   4.826   0.253  0.0159 -0.0745  0.2310
 8086WAT     H124660   4.990   4.810   0.166  0.8017  0.0323  0.5346
 8086WAT     H224661   5.029   4.826   0.311 -0.5558 -0.6975  0.9979
 8087WAT      O24662   5.017   3.907   5.232  0.3453 -0.3497  0.2708
 8087WAT     H124663   5.025   3.813   5.245 -0.1255 -0.6223 -1.1764
 8087WAT     H224664   4.984   3.940   5.315  0.9858 -1.3831  0.9589
 8088WAT      O24665   0.357   1.683   3.736  0.0579 -0.1723 -0.3463
 8088WAT     H124666   0.390   1.770   3.714 -2.8651  0.8067 -1.3273
 8088WAT     H224667   0.435   1.634   3.763  1.9887  2.3467 -0.9472
 8089WAT      O24668   0.781   3.221   5.543  0.2618 -0.2755 -0.5339
 8089WAT     H124669   0.730   3.176   5.610  1.8362  0.6013  1.3359
 8089WAT     H224670   0.756   3.177   5.461 -1.7818 -1.3218  0.5688
 8090WAT      O24671   6.461   5.979   3.086  0.6309  0.2314 -0.5008
 8090WAT     H124672   6.494   6.063   3.118  3.5561 -1.1374  0.3763
 8090WAT     H224673   6.533   5.918   3.099 -1.0777 -2.2733 -1.9270
 8091WAT      O24674   1.264   1.181   4.697  0.0210 -0.3780  0.3125
 8091WAT     H124675   1.213   1.253   4.660 -0.5383 -0.7245  0.4042
 8091WAT     H224676   1.210   1.104   4.682  0.0082 -0.5990  1.4187
 8092WAT      O24677   4.692   2.433   2.412  0.5987  0.4521  0.0968
 8092WAT     H124678   4.645   2.455   2.492 -0.3612  0.5710 -0.4822
 8092WAT     H224679   4.666   2.500   2.349  1.6815  0.6166 -0.2052
 8093WAT      O24680   4.868   7.083   6.146 -0.0827 -0.0304  0.4120
 8093WAT     H124681   4.835   7.127   6.068  2.9608 -1.9957 -2.1833
 8093WAT     H224682   4.964   7.090   6.140  0.3324 -1.2057  3.4440
 8094WAT      O24683   5.022   2.714   5.556 -0.4024  0.5022 -0.1213
 8094WAT     H124684   4.927   2.724   5.563 -0.3213  0.9190  0.5328
 8094WAT     H224685   5.056   2.798   5.587  0.1956  0.0932  0.3487
 8095WAT      O24686   5.285   5.660   2.659  0.6113 -0.0196  0.1438
 8095WAT     H124687   5.314   5.575   2.693  0.7727 -0.3324 -0.7459
 8095WAT     H224688   5.294   5.720   2.733  0.6358 -0.7445  0.7434
 8096WAT      O24689   0.825   2.213   3.545  0.1125  0.1839 -0.1167
 8096WAT     H124690   0.838   2.291   3.599  1.2436 -0.4875  0.6229
 8096WAT     H224691   0.853   2.239   3.458 -0.8146  1.0005 -0.1746
 8097WAT      O24692   0.801   3.566   1.830 -1.1885  0.2847 -0.8100
 8097WAT     H124693   0.799   3.487   1.883  2.2522  0.1446 -0.6548
 8097WAT     H224694   0.749   3.544   1.752 -0.7679 -1.9509 -0.5213
 8098WAT      O24695   3.106   4.722   2.458  0.5511 -0.4045 -0.1735
 8098WAT     H124696   3.050   4.650   2.429  1.4965 -1.6677  0.9930
 8098WAT     H224697   3.145   4.690   2.540 -0.2198  2.0703  1.2565
 8099WAT      O24698   6.150   1.476   1.909  0.5120  0.5423 -0.0184
 8099WAT     H124699   6.123   1.428   1.988  0.7200 -0.7954 -0.7271
 8099WAT     H224700   6.143   1.568   1.934 -1.1819  0.2003  0.9879
 8100WAT      O24701   3.044   0.732   5.246 -0.2739 -0.2994  0.6001
 8100WAT     H124702   3.108   0.802   5.257 -0.1512 -0.2247 -0.4678
 8100WAT     H224703   3.017   0.709   5.335 -1.5704  2.2642  0.9497
 8101WAT      O24704   1.385   4.027   2.635 -0.0774 -0.5520 -0.1109
 8101WAT     H124705   1.303   4.074   2.645 -1.4717 -2.7132 -0.7652
 8101WAT     H224706   1.450   4.096   2.618 -1.2856  1.4160  2.4076
 8102WAT      O24707   6.032   1.480   2.764 -0.2821  0.1159  0.4715
 8102WAT     H124708   6.044   1.509   2.673 -0.6352  1.8507  0.9540
 8102WAT     H224709   5.938   1.463   2.771 -0.2119 -0.3077  0.4524
 8103WAT      O24710   1.252   0.937   1.149 -0.0805 -0.7232 -0.0825
 8103WAT     H124711   1.308   0.937   1.071 -1.3163  2.2553 -1.1282
 8103WAT     H224712   1.307   0.974   1.218  0.3455 -1.3065 -0.1031
 8104WAT      O24713   1.245   6.296   3.338  0.3189 -0.1085  0.7292
 8104WAT     H124714   1.211   6.386   3.340  1.3220  0.3016  3.0185
 8104WAT     H224715   1.215   6.258   3.421 -1.7632 -2.6163 -1.0205
 8105WAT      O24716   2.173   1.027   2.926 -0.5108 -0.2184 -0.5718
 8105WAT     H124717   2.143   1.047   3.015 -0.2596  0.5137 -0.6466
 8105WAT     H224718   2.107   0.966   2.892 -0.7460 -0.3051  0.0223
 8106WAT      O24719   7.437   1.358   1.532  0.1094 -0.0715 -0.0194
 8106WAT     H124720   7.442   1.451   1.513 -1.0996  0.1058  0.4503
 8106WAT     H224721   7.510   1.341   1.592  1.6366  0.1161 -1.7469
 8107WAT      O24722   4.753   2.645   2.915  0.1820  0.0367  0.0591
 8107WAT     H124723   4.835   2.679   2.949  0.9243 -2.7685  1.2961
 8107WAT     H224724   4.703   2.724   2.890  2.0561  1.9432  1.9318
 8108WAT      O24725   3.382   3.809   4.244  0.0789 -0.3989 -0.3948
 8108WAT     H124726   3.336   3.883   4.204 -1.8349 -1.1243  0.3254
 8108WAT     H224727   3.418   3.845   4.325  0.5324  0.1034 -0.8071
 8109WAT      O24728   4.234   2.303   2.083 -0.2499  0.2456  0.2135
 8109WAT     H124729   4.226   2.252   2.164  0.1171  1.0873  0.8000
 8109WAT     H224730   4.151   2.349   2.074 -0.2117  0.3199  0.2343
 8110WAT      O24731   6.712   1.476   0.834 -0.9159 -0.1591 -0.3404
 8110WAT     H124732   6.765   1.503   0.759 -0.0692  0.9322  0.6248
 8110WAT     H224733   6.706   1.381   0.825  1.2395 -0.3340 -0.4899
 8111WAT      O24734   1.568   4.783   0.525  0.4253  0.2779  0.0560
 8111WAT     H124735   1.534   4.695   0.543  0.4745  0.6775  2.4972
 8111WAT     H224736   1.662   4.775   0.539  0.6148  0.4576 -1.0231
 8112WAT      O24737   7.489   4.523   1.030  0.6076 -0.1067 -0.1694
 8112WAT     H124738   7.429   4.518   1.105  1.8340 -0.9461  0.7868
 8112WAT     H224739   7.488   4.616   1.006 -0.5910  0.0009  0.2238
 8113WAT      O24740   1.005   5.173   2.535  0.4256  0.0833  0.3375
 8113WAT     H124741   1.031   5.224   2.611  0.3338 -0.3743  0.6825
 8113WAT     H224742   0.933   5.222   2.496  0.8445  0.6067  0.2169
 8114WAT      O24743   7.091   5.883   4.805  0.1255 -0.0038  0.1026
 8114WAT     H124744   7.009   5.918   4.839  0.2346  0.5295 -0.1648
 8114WAT     H224745   7.158   5.917   4.865  0.2984  0.7855 -0.5116
 8115WAT      O24746   1.028   0.079   3.207  0.3780  0.1127 -0.1839
 8115WAT     H124747   1.099   0.110   3.151 -0.2261 -0.4831 -1.3021
 8115WAT     H224748   1.044   0.122   3.291  1.3084  1.0157 -0.7969
 8116WAT      O24749   2.296   0.725   4.176  0.3009 -0.2809 -0.3816
 8116WAT     H124750   2.339   0.801   4.215 -0.2068 -1.0694  1.8880
 8116WAT     H224751   2.218   0.712   4.230  0.0090 -1.9916 -1.1650
 8117WAT      O24752   3.727   3.598   1.340 -0.3763  0.4681 -0.5909
 8117WAT     H124753   3.652   3.544   1.366 -0.4359  0.4667 -0.7646
 8117WAT     H224754   3.800   3.563   1.391 -0.1115 -0.6793 -1.6931
 8118WAT      O24755   5.323   1.333   2.030 -0.0414 -0.3689 -0.2092
 8118WAT     H124756   5.359   1.260   2.081 -0.5700 -0.3551  0.1922
 8118WAT     H224757   5.360   1.322   1.943  0.1771 -0.9021 -0.0519
 8119WAT      O24758   7.115   7.057   5.705  0.8892 -0.0317 -0.4783
 8119WAT     H124759   7.093   7.012   5.786  2.0951  1.3872  0.6826
 8119WAT     H224760   7.032   7.091   5.673  0.3199 -1.0676 -0.1504
 8120WAT      O24761   6.112   0.689   3.506 -0.2934  0.5035  0.3244
 8120WAT     H124762   6.111   0.727   3.593  1.0270 -1.3220  1.2086
 8120WAT     H224763   6.166   0.611   3.514 -1.7348 -0.8297 -1.6685
 8121WAT      O24764   7.014   4.455   5.350  0.2954 -0.6734 -0.0761
 8121WAT     H124765   7.060   4.459   5.434  0.2361 -0.3236 -0.0619
 8121WAT     H224766   6.998   4.361   5.337 -0.0025 -0.7017  0.4694
 8122WAT      O24767   2.898   3.742   3.860  0.5900  0.1676  0.6863
 8122WAT     H124768   2.991   3.724   3.849  0.8654  0.7202  1.8624
 8122WAT     H224769   2.873   3.695   3.940 -0.0813  0.2042  0.5068
 8123WAT      O24770   5.860   3.941   5.978  0.4121  0.1141  0.7239
 8123WAT     H124771   5.819   4.019   6.015 -0.5343 -0.1022  0.1714
 8123WAT     H224772   5.810   3.868   6.015 -1.9333 -0.0580 -2.4397
 8124WAT      O24773   6.852   5.451   4.733 -0.0477  0.4410  0.0827
 8124WAT     H124774   6.787   5.415   4.794 -0.4178 -2.2390 -1.7289
 8124WAT     H224775   6.935   5.413   4.763 -0.2306 -0.8798 -1.0021
 8125WAT      O24776   7.313   5.091   5.519  0.3839  0.5588  0.1405
 8125WAT     H124777   7.254   5.026   5.558 -0.6421  0.3237 -1.7128
 8125WAT     H224778   7.298   5.171   5.570  2.1244 -0.6968  2.8817
 8126WAT      O24779   3.985   0.406   4.505  0.6881 -0.3224 -0.1586
 8126WAT     H124780   3.980   0.498   4.531  1.6845 -0.3391  0.1196
 8126WAT     H224781   4.078   0.385   4.508  0.5397 -1.1415 -0.9369
 8127WAT      O24782   5.305   3.839   0.826  0.0843 -0.7235  0.0417
 8127WAT     H124783   5.229   3.795   0.866  0.7541 -0.4425  1.7163
 8127WAT     H224784   5.375   3.774   0.830  1.2136  0.5116  2.9572
 8128WAT      O24785   2.748   5.179   1.130 -0.3719  0.1937  0.2098
 8128WAT     H124786   2.656   5.204   1.129  0.3506  3.2526 -2.0913
 8128WAT     H224787   2.774   5.188   1.222 -1.9193  0.9802  0.6007
 8129WAT      O24788   0.745   1.901   5.451  0.4103  0.0486 -1.1595
 8129WAT     H124789   0.826   1.944   5.480 -0.3654 -0.4538  2.1507
 8129WAT     H224790   0.676   1.965   5.468 -0.3265 -1.0486  0.2335
 8130WAT      O24791   7.424   0.632   2.924  0.2145  0.3336  0.1802
 8130WAT     H124792   7.414   0.661   3.015 -1.0940 -1.2567  0.5908
 8130WAT     H224793   7.427   0.537   2.929 -3.1619 -0.0331 -1.6027
 8131WAT      O24794   6.596   3.029   5.308 -0.2360 -0.1508 -0.6952
 8131WAT     H124795   6.608   2.936   5.328 -0.7507  0.0194  0.5259
 8131WAT     H224796   6.658   3.074   5.365  0.5620  0.2368 -1.8393
 8132WAT      O24797   0.538   4.533   2.271  0.2232 -0.6506  0.4755
 8132WAT     H124798   0.478   4.599   2.235 -2.1919 -2.9163 -0.0250
 8132WAT     H224799   0.624   4.558   2.238 -0.8489  1.2450 -1.1385
 8133WAT      O24800   5.712   4.904   4.249  0.5784 -0.0162 -0.9173
 8133WAT     H124801   5.734   4.995   4.266 -1.5122  0.2428  0.8057
 8133WAT     H224802   5.796   4.859   4.241  1.6324  1.8332 -0.5716
 8134WAT      O24803   5.555   1.135   5.931 -0.0381  0.1877  0.5895
 8134WAT     H124804   5.536   1.085   6.011  0.0348 -1.5411 -0.4278
 8134WAT     H224805   5.645   1.112   5.909 -0.0857  0.5733 -0.0352
 8135WAT      O24806   4.460   6.557   3.332 -0.6014  0.1397 -0.0940
 8135WAT     H124807   4.424   6.536   3.418 -0.9029  1.0948  0.0260
 8135WAT     H224808   4.472   6.652   3.333  2.2355 -0.1454 -0.0202
 8136WAT      O24809   5.089   6.259   1.248 -0.2561 -0.2319 -0.7564
 8136WAT     H124810   5.168   6.205   1.246  0.4707  0.8204 -1.9008
 8136WAT     H224811   5.037   6.229   1.174  0.8456  1.5791 -2.3339
 8137WAT      O24812   5.876   0.196   2.800  0.2296 -0.7157 -0.0347
 8137WAT     H124813   5.807   0.143   2.841  0.1033 -0.4152  0.1440
 8137WAT     H224814   5.830   0.273   2.766  0.4867 -0.4879  0.1319
 8138WAT      O24815   5.864   2.513   1.919 -0.3875  0.5181  0.4653
 8138WAT     H124816   5.790   2.573   1.924  1.1445  2.4519  1.4658
 8138WAT     H224817   5.894   2.504   2.010  0.5300 -0.3462  0.0977
 8139WAT      O24818   2.174   3.047   5.528 -0.3558  0.2925  0.3165
 8139WAT     H124819   2.108   3.111   5.503 -0.5041  1.0162  2.3424
 8139WAT     H224820   2.253   3.074   5.483 -0.6230  1.4493  0.5044
 8140WAT      O24821   6.414   2.069   4.456  0.3409 -0.0455 -0.0111
 8140WAT     H124822   6.499   2.066   4.498 -0.4692 -1.4235  1.6451
 8140WAT     H224823   6.354   2.097   4.525 -0.8640 -1.3009 -0.4908
 8141WAT      O24824   7.256   1.241   0.743  0.3071  0.0246 -0.2105
 8141WAT     H124825   7.227   1.197   0.823  1.8593 -0.7502 -0.0377
 8141WAT     H224826   7.245   1.175   0.674 -0.3247  0.4429 -0.5205
 8142WAT      O24827   1.382   6.244   4.804 -0.3843 -0.0598 -0.3552
 8142WAT     H124828   1.425   6.165   4.772 -0.9183 -0.0737 -1.0494
 8142WAT     H224829   1.293   6.239   4.769 -1.9138 -1.4260  3.2451
 8143WAT      O24830   0.255   5.604   0.834  0.1268 -0.1816  0.3573
 8143WAT     H124831   0.325   5.661   0.866 -1.1257  0.9442  1.1951
 8143WAT     H224832   0.287   5.515   0.850  1.2602  0.3035  0.9292
 8144WAT      O24833   5.476   2.452   2.899  0.0866 -0.1177 -0.5058
 8144WAT     H124834   5.547   2.510   2.925 -1.1673  0.5646  1.6630
 8144WAT     H224835   5.517   2.388   2.840  2.5505  0.0962  0.8505
 8145WAT      O24836   5.306   6.810   1.773  0.2434  0.1453 -0.0656
 8145WAT     H124837   5.345   6.875   1.831  0.9311  0.1162 -0.4869
 8145WAT     H224838   5.327   6.726   1.814  1.3025  0.0919 -0.6825
 8146WAT      O24839   1.099   0.462   1.389 -0.0093 -0.2372 -0.1532
 8146WAT     H124840   1.152   0.524   1.340 -0.1716 -0.4915 -0.6513
 8146WAT     H224841   1.163   0.408   1.437  0.0996  1.4144  1.6684
 8147WAT      O24842   0.012   4.736   2.697 -0.1725  0.3106 -0.1231
 8147WAT     H124843  -0.075   4.704   2.719  0.4201 -0.9992  0.4240
 8147WAT     H224844   0.071   4.687   2.754  0.9773  0.7730 -0.8745
 8148WAT      O24845   3.374   5.006   1.496 -0.2357  0.1383  0.1778
 8148WAT     H124846   3.340   5.083   1.542 -1.0796  1.0105 -1.7525
 8148WAT     H224847   3.410   4.950   1.564 -2.8883  0.5558  2.0559
 8149WAT      O24848   4.371   4.697   4.033  0.3755 -0.1549 -0.4272
 8149WAT     H124849   4.401   4.699   4.124 -0.5225  0.0531 -0.1184
 8149WAT     H224850   4.417   4.623   3.993  3.7921  2.0514 -0.9235
 8150WAT      O24851   7.182   7.147   2.133  0.0824 -0.3112 -0.2376
 8150WAT     H124852   7.140   7.228   2.164  0.4025 -1.1553  2.8010
 8150WAT     H224853   7.275   7.163   2.144  0.3880  0.0107 -2.8181
 8151WAT      O24854   5.132   6.345   3.768 -0.1579  0.9924  0.3024
 8151WAT     H124855   5.070   6.326   3.839  0.8607 -2.8331  0.3788
 8151WAT     H224856   5.202   6.395   3.811 -0.0093 -0.4477  1.8452
 8152WAT      O24857   1.336   7.177   1.395  0.4092 -0.1466 -0.2490
 8152WAT     H124858   1.408   7.122   1.367 -0.7872 -3.0381  1.8489
 8152WAT     H224859   1.377   7.245   1.449  1.7377 -0.3364 -0.9938
 8153WAT      O24860   4.073   3.069   1.796  0.5410 -0.0044 -0.2171
 8153WAT     H124861   4.157   3.037   1.765  0.4892 -0.0904 -0.2681
 8153WAT     H224862   4.087   3.087   1.889  1.0468  1.4437 -0.5498
 8154WAT      O24863   0.578   5.687   1.204  0.1701 -0.2146  0.1376
 8154WAT     H124864   0.595   5.662   1.295 -0.4489 -0.1987  0.2635
 8154WAT     H224865   0.611   5.776   1.196  1.0250 -0.5296  0.1018
 8155WAT      O24866   4.328   1.562   3.466 -0.2256  0.2422  0.2221
 8155WAT     H124867   4.319   1.626   3.537  2.4472 -0.5118  1.3757
 8155WAT     H224868   4.371   1.611   3.396  0.4782  0.0980  0.5452
 8156WAT      O24869   5.190   3.466   2.970  0.6978  0.0430 -0.5684
 8156WAT     H124870   5.246   3.539   2.996  0.1396  0.6045 -0.9114
 8156WAT     H224871   5.147   3.497   2.890  0.5943 -0.7363 -0.8180
 8157WAT      O24872   7.566   1.878   1.954  0.2491 -0.3212 -0.1587
 8157WAT     H124873   7.622   1.953   1.974  0.8101 -1.1596  1.6628
 8157WAT     H224874   7.573   1.867   1.859  3.7592 -0.7725  0.0173
 8158WAT      O24875   3.959   4.971   3.519  0.6497  0.0871 -0.6797
 8158WAT     H124876   3.868   4.947   3.501  1.0043 -0.8855 -1.2726
 8158WAT     H224877   3.992   4.903   3.577  0.9610  0.5254 -0.3251
 8159WAT      O24878   5.546   4.758   1.372  0.7502 -0.4375  0.3209
 8159WAT     H124879   5.606   4.687   1.396 -0.5379 -1.3211  1.0925
 8159WAT     H224880   5.481   4.758   1.443  1.4415  2.4229  1.0805
 8160WAT      O24881   3.616   4.930   5.577 -0.1119 -0.2438 -0.1663
 8160WAT     H124882   3.688   4.986   5.607  1.3676 -0.9731 -2.1982
 8160WAT     H224883   3.539   4.967   5.621  1.6007 -0.3500  3.3145
 8161WAT      O24884   5.694   3.591   4.229  0.4647  0.2754 -0.2001
 8161WAT     H124885   5.691   3.642   4.310  0.2844  1.0396 -0.6774
 8161WAT     H224886   5.604   3.560   4.217  0.9847 -2.0278  1.2287
 8162WAT      O24887   6.034   0.929   2.198  0.0686 -0.2507 -0.2109
 8162WAT     H124888   6.113   0.909   2.248  1.4321  0.5718 -1.9268
 8162WAT     H224889   5.987   0.993   2.252  2.0329  1.4314 -0.3885
 8163WAT      O24890   2.882   1.752   2.141 -0.1608 -0.6497 -0.0119
 8163WAT     H124891   2.839   1.679   2.185  0.3221  0.2968  2.1370
 8163WAT     H224892   2.813   1.791   2.087 -0.7533 -1.9147 -0.1927
 8164WAT      O24893   1.741   5.714   0.230 -0.3992  0.3038  0.1404
 8164WAT     H124894   1.734   5.666   0.312 -2.0682 -0.3769 -0.3618
 8164WAT     H224895   1.732   5.806   0.255  1.9455  0.3801  1.0032
 8165WAT      O24896   6.365   1.319   4.420  0.3687  0.3663  0.5032
 8165WAT     H124897   6.312   1.380   4.369  1.1771  0.1431 -0.6322
 8165WAT     H224898   6.445   1.308   4.369 -0.0417 -2.2242  0.2792
 8166WAT      O24899   1.321   1.207   0.377 -0.3695  0.3073  0.3723
 8166WAT     H124900   1.268   1.244   0.448 -1.2428  3.4236 -1.7145
 8166WAT     H224901   1.408   1.244   0.391  0.3049 -1.5509  1.4627
 8167WAT      O24902   1.854   3.899   5.100 -0.1772  0.3210 -0.2336
 8167WAT     H124903   1.781   3.839   5.114 -3.0731  3.6309  0.1039
 8167WAT     H224904   1.914   3.881   5.173 -0.5525 -2.4889 -0.5091
 8168WAT      O24905   2.371   1.129   0.414 -0.2231  0.2388  0.8860
 8168WAT     H124906   2.464   1.108   0.405 -0.3283  0.3805 -1.0293
 8168WAT     H224907   2.335   1.055   0.463  0.7638 -0.1893  0.9969
 8169WAT      O24908   5.490   3.787   1.864  0.1563 -0.0189 -0.4920
 8169WAT     H124909   5.463   3.744   1.946 -3.1445  0.5396 -1.1529
 8169WAT     H224910   5.514   3.876   1.891 -0.9567  0.1781 -0.1101
 8170WAT      O24911   0.005   6.145   3.566 -0.1659  0.4758 -0.3176
 8170WAT     H124912   0.068   6.174   3.632  0.8468  0.9123 -1.4288
 8170WAT     H224913   0.053   6.083   3.512 -0.3089  1.6072 -1.8341
 8171WAT      O24914   3.456   2.900   2.090 -0.0521 -0.2432  0.0483
 8171WAT     H124915   3.478   2.940   2.173  0.6635  1.2314 -0.8211
 8171WAT     H224916   3.366   2.868   2.102 -0.0448  0.1554  1.2950
 8172WAT      O24917   2.086   6.204   1.203  0.2043 -0.1326 -0.4523
 8172WAT     H124918   2.154   6.234   1.264  0.8948 -0.1791 -1.1870
 8172WAT     H224919   2.063   6.117   1.235  0.3942 -0.0625 -0.1178
 8173WAT      O24920   0.739   6.268   4.921  0.1646  0.8298 -0.3612
 8173WAT     H124921   0.681   6.194   4.938  2.7125 -1.5071 -1.1325
 8173WAT     H224922   0.693   6.319   4.854 -0.3909 -1.8741 -2.2367
 8174WAT      O24923   3.485   7.160   0.114 -0.1024  0.0636  0.3323
 8174WAT     H124924   3.513   7.076   0.077 -0.1331 -0.7774  2.1091
 8174WAT     H224925   3.541   7.172   0.190 -2.4089 -0.0770  2.1422
 8175WAT      O24926   1.376   3.458   2.622  0.2586 -0.8072 -0.1171
 8175WAT     H124927   1.432   3.449   2.699 -0.2668 -2.4653  0.1094
 8175WAT     H224928   1.354   3.551   2.618  1.0715 -0.5489  1.1755
 8176WAT      O24929   2.976   2.113   4.071  0.1759  0.2209  0.3290
 8176WAT     H124930   3.062   2.134   4.034 -0.6522  0.7115 -1.4469
 8176WAT     H224931   2.925   2.084   3.995 -1.2291 -0.0748  1.3573
 8177WAT      O24932   3.947   6.480   0.616 -0.3561  0.0782 -0.1983
 8177WAT     H124933   3.888   6.553   0.636  0.1377  0.7443 -1.0546
 8177WAT     H224934   3.890   6.404   0.609 -0.7491  0.1555  1.7988
 8178WAT      O24935   5.946   4.539   2.095  0.0237 -0.1080 -0.1258
 8178WAT     H124936   5.946   4.556   2.189 -0.1314  1.4835 -0.3785
 8178WAT     H224937   5.979   4.450   2.086 -2.2068 -1.1839  1.5701
 8179WAT      O24938   5.290   7.079   2.518  0.3130 -0.1608  0.0860
 8179WAT     H124939   5.260   6.990   2.537  0.1601 -0.5990 -2.0446
 8179WAT     H224940   5.345   7.101   2.593  1.1130 -2.4016  0.2316
 8180WAT      O24941   2.803   0.968   3.657  0.1831  0.1863  0.1104
 8180WAT     H124942   2.714   0.992   3.682  0.0482  0.6673 -0.7971
 8180WAT     H224943   2.857   0.994   3.732  0.1144  3.7165 -0.9125
 8181WAT      O24944   1.771   0.597   5.418  0.2528  0.4234  0.4389
 8181WAT     H124945   1.799   0.510   5.389 -0.4319  0.6380 -0.9165
 8181WAT     H224946   1.756   0.646   5.337 -0.4638  1.4549  1.1723
 8182WAT      O24947   2.859   0.879   2.099 -0.4008  0.0016  0.5710
 8182WAT     H124948   2.833   0.967   2.123 -3.1108 -0.9431  1.4009
 8182WAT     H224949   2.945   0.867   2.142 -1.0701  1.4233  2.4448
 8183WAT      O24950   0.721   3.941   3.286  0.3146 -0.0969  0.2445
 8183WAT     H124951   0.773   3.877   3.236 -0.7755 -0.3100 -0.6460
 8183WAT     H224952   0.639   3.896   3.305 -1.1063  1.5109 -1.7253
 8184WAT      O24953   4.395   2.064   1.554 -0.0822 -0.2511 -0.7086
 8184WAT     H124954   4.335   2.102   1.618 -0.4434 -0.0516 -1.1573
 8184WAT     H224955   4.342   1.999   1.508  0.6241 -1.5717  0.2883
 8185WAT      O24956   5.816   4.327   1.541 -0.3292 -0.2510 -0.2798
 8185WAT     H124957   5.756   4.257   1.566  0.6920 -1.4379 -1.0618
 8185WAT     H224958   5.895   4.312   1.593  0.1774 -0.1312 -0.9897
 8186WAT      O24959   7.135   7.199   0.233  0.4338 -0.2192 -0.5594
 8186WAT     H124960   7.057   7.195   0.287  1.5147  0.9013  1.1845
 8186WAT     H224961   7.160   7.292   0.234  1.7281 -0.5353 -1.1603
 8187WAT      O24962   1.902   2.557   0.946  0.4129 -0.6297 -0.2109
 8187WAT     H124963   1.941   2.504   1.015 -0.0121  1.7864  2.0194
 8187WAT     H224964   1.935   2.645   0.961 -0.3467  0.1626 -2.6530
 8188WAT      O24965   5.765   1.081   6.210 -0.2744  0.1597 -0.1296
 8188WAT     H124966   5.851   1.079   6.252  0.1589  2.2924 -0.7762
 8188WAT     H224967   5.703   1.063   6.280  0.5852  0.8522  0.8439
 8189WAT      O24968   1.440   3.166   5.915 -0.3509  0.1482  0.0331
 8189WAT     H124969   1.491   3.187   5.837 -0.6911  2.7000  0.4166
 8189WAT     H224970   1.361   3.125   5.881 -0.6971  1.6259 -1.0564
 8190WAT      O24971   0.201   2.542   5.795  0.1972 -0.0490  0.3091
 8190WAT     H124972   0.112   2.523   5.765 -0.6717  1.2728  1.8862
 8190WAT     H224973   0.204   2.508   5.884  0.5158  1.8316  1.0624
 8191WAT      O24974   1.101   4.789   4.960 -0.3250 -0.3867 -0.2510
 8191WAT     H124975   1.068   4.833   5.039  1.1821 -2.0613  1.3996
 8191WAT     H224976   1.196   4.792   4.969 -0.1272 -0.8565 -1.8944
 8192WAT      O24977   2.003   5.703   0.192 -0.3978  0.4798  0.0747
 8192WAT     H124978   2.035   5.793   0.197  0.5168  0.1414  0.4998
 8192WAT     H224979   1.908   5.711   0.203 -0.2446  1.3196  1.0039
 8193WAT      O24980   5.747   2.407   1.028 -0.1875 -0.2102 -0.5607
 8193WAT     H124981   5.666   2.357   1.018 -0.3551 -0.9684  3.0868
 8193WAT     H224982   5.816   2.341   1.023 -0.2508 -0.5315  1.8610
 8194WAT      O24983   4.475   1.743   0.527 -0.5369  0.5874 -1.0220
 8194WAT     H124984   4.383   1.739   0.553  0.1380 -1.9966  1.5859
 8194WAT     H224985   4.523   1.720   0.607  2.3889  1.4834 -2.3767
 8195WAT      O24986   4.712   5.442   2.996  0.0335  0.1937 -0.2725
 8195WAT     H124987   4.791   5.455   3.049  0.3323 -1.1359 -0.3562
 8195WAT     H224988   4.692   5.349   3.005 -2.5579  0.7842  1.1451
 8196WAT      O24989   3.612   6.427   5.141  0.0895 -0.1869  0.1611
 8196WAT     H124990   3.551   6.478   5.195 -0.0332  1.1571 -1.1725
 8196WAT     H224991   3.696   6.472   5.151  0.1082 -0.0325 -0.5797
 8197WAT      O24992   0.166   6.037   4.407 -0.1894  0.2440  0.1630
 8197WAT     H124993   0.262   6.042   4.406 -0.2403  1.4846  0.1234
 8197WAT     H224994   0.138   6.113   4.458 -1.1914  0.8553 -1.2238
 8198WAT      O24995   7.228   1.009   5.996 -0.2885 -0.2615 -0.0906
 8198WAT     H124996   7.247   1.072   6.066  1.7179  0.2924 -1.0672
 8198WAT     H224997   7.187   1.062   5.927  3.7161  0.7007 -1.9904
 8199WAT      O24998   3.424   4.682   4.553 -0.3708 -0.4133 -0.7633
 8199WAT     H124999   3.390   4.744   4.617 -0.3631  0.3716 -1.5118
 8199WAT     H225000   3.346   4.638   4.519 -0.3694 -0.8896 -0.1728
 8200WAT      O25001   1.621   5.907   2.693 -0.2803 -0.1417  0.3489
 8200WAT     H125002   1.642   5.977   2.754  2.4964 -1.4731  1.0948
 8200WAT     H225003   1.535   5.874   2.722 -0.0281  0.6830  2.1302
 8201WAT      O25004   0.600   6.814   0.947  0.0591  0.0090  0.3397
 8201WAT     H125005   0.567   6.738   0.995 -3.1991  0.3405 -1.0493
 8201WAT     H225006   0.581   6.794   0.855  1.3145  1.5114 -0.2866
 8202WAT      O25007   7.109   4.619   0.811 -0.5353 -0.1838 -0.4485
 8202WAT     H125008   7.134   4.548   0.870  1.7576  0.4639 -0.5617
 8202WAT     H225009   7.185   4.677   0.809 -1.2435  0.7676 -2.6131
 8203WAT      O25010   1.989   1.853   0.496 -0.1084 -0.2754  0.1127
 8203WAT     H125011   1.991   1.902   0.413 -1.5516 -0.8254 -0.2681
 8203WAT     H225012   2.029   1.913   0.559  1.9405 -0.2112 -1.1283
 8204WAT      O25013   0.526   3.166   2.247  0.3392 -0.0601 -0.1019
 8204WAT     H125014   0.479   3.092   2.208 -0.7015  0.5464 -0.0211
 8204WAT     H225015   0.540   3.140   2.338 -1.5546  0.5050  0.4059
 8205WAT      O25016   1.027   5.243   1.034  0.3261 -0.1230  0.0861
 8205WAT     H125017   0.977   5.312   1.079  1.7691  0.4098  0.9193
 8205WAT     H225018   0.979   5.228   0.953  0.2573  2.2374 -0.3634
 8206WAT      O25019   2.612   4.638   3.692 -0.1188  0.2778  0.2699
 8206WAT     H125020   2.525   4.677   3.704 -1.1476 -1.2843 -1.5781
 8206WAT     H225021   2.617   4.619   3.598  1.1929 -1.9723  0.7332
 8207WAT      O25022   2.008   2.695   3.834 -0.2065 -0.5929  0.1882
 8207WAT     H125023   1.979   2.627   3.896 -1.8173  1.5629  1.9465
 8207WAT     H225024   2.103   2.698   3.845 -0.3223 -1.1968  1.5620
 8208WAT      O25025   0.097   4.697   4.469 -0.1945 -0.2165 -0.1566
 8208WAT     H125026   0.097   4.778   4.520 -1.1335 -0.6342  0.5363
 8208WAT     H225027   0.025   4.708   4.406  0.1730 -0.2032 -0.5795
 8209WAT      O25028   4.326   1.869   5.408 -0.3444 -0.0256 -0.2592
 8209WAT     H125029   4.309   1.810   5.335 -0.8873 -0.3074  0.0823
 8209WAT     H225030   4.331   1.812   5.485  0.3659  0.2522 -0.0967
 8210WAT      O25031   4.323   2.339   5.495 -0.4842  0.1212 -0.3231
 8210WAT     H125032   4.291   2.256   5.460 -1.8464  0.1871  0.6757
 8210WAT     H225033   4.364   2.316   5.578 -1.0469  0.4683  0.0565
 8211WAT      O25034   0.026   4.141   2.425 -0.2784 -0.0735  0.1931
 8211WAT     H125035   0.094   4.147   2.358 -0.5604  1.9611  0.0002
 8211WAT     H225036  -0.056   4.154   2.377 -0.6056 -0.2176  0.7095
 8212WAT      O25037   0.709   1.560   0.243 -0.1538 -0.5217  0.0396
 8212WAT     H125038   0.703   1.543   0.337 -0.1369 -0.8788 -0.0244
 8212WAT     H225039   0.735   1.652   0.237 -0.2232 -0.4777  0.3830
 8213WAT      O25040   4.138   3.088   5.764  0.3191  0.6123  0.7433
 8213WAT     H125041   4.157   3.026   5.834  2.0865  0.1130 -0.1286
 8213WAT     H225042   4.175   3.171   5.794  1.7588  0.2227  0.1158
 8214WAT      O25043   3.087   4.831   3.691  0.1614 -0.0982 -0.4190
 8214WAT     H125044   3.128   4.816   3.776  1.4316 -2.8376 -1.4002
 8214WAT     H225045   2.994   4.821   3.707  0.1165  2.0584  1.0728
 8215WAT      O25046   1.729   0.436   5.741  0.2441  0.4064 -0.6082
 8215WAT     H125047   1.700   0.388   5.663 -0.9074 -0.8404  0.5508
 8215WAT     H225048   1.756   0.369   5.802  0.6894  1.3490  0.2572
 8216WAT      O25049   1.702   2.156   0.191 -0.6696  0.4105  0.2509
 8216WAT     H125050   1.695   2.230   0.251 -1.0218 -1.0065  2.0455
 8216WAT     H225051   1.614   2.121   0.185 -0.3846 -0.2887  0.0021
 8217WAT      O25052   4.196   1.163   1.287 -0.2083  0.2605 -0.4926
 8217WAT     H125053   4.248   1.244   1.282 -0.2858  0.3666  0.3935
 8217WAT     H225054   4.261   1.093   1.284 -0.1847  0.2931 -2.2540
 8218WAT      O25055   2.080   5.939   2.836 -0.5955  0.4739 -0.4323
 8218WAT     H125056   2.064   6.026   2.873  2.0183 -0.6104  3.8181
 8218WAT     H225057   2.175   5.930   2.835 -0.7076 -1.6924 -2.7327
 8219WAT      O25058   2.464   4.332   4.310 -0.4633  0.2960 -0.8717
 8219WAT     H125059   2.431   4.320   4.399 -0.7438  0.5120 -0.9458
 8219WAT     H225060   2.513   4.251   4.292 -1.7054 -0.4375 -1.0862
 8220WAT      O25061   3.190   2.940   0.673  0.1324 -0.0843  0.3027
 8220WAT     H125062   3.244   2.974   0.744 -0.7234  0.3995  0.7361
 8220WAT     H225063   3.102   2.932   0.711 -1.1076  3.1565 -1.5252
 8221WAT      O25064   6.621   2.991   3.386  0.6028 -0.2243  0.4055
 8221WAT     H125065   6.674   2.984   3.307 -1.3375  0.3696 -1.0381
 8221WAT     H225066   6.620   3.084   3.407  0.8962 -0.3468  0.9775
 8222WAT      O25067   3.000   5.570   4.977  0.5197 -0.2813 -1.1015
 8222WAT     H125068   2.988   5.494   5.033 -0.4160  1.1307  0.7171
 8222WAT     H225069   3.070   5.544   4.917 -0.2724 -2.8119 -1.0496
 8223WAT      O25070   0.653   6.136   6.008  0.5961  0.2975  0.3440
 8223WAT     H125071   0.645   6.210   6.068  0.2767 -0.9768  1.9862
 8223WAT     H225072   0.701   6.070   6.059 -0.0722 -0.9995 -0.6483
 8224WAT      O25073   4.349   7.172   0.785 -0.5188  0.1858  0.0214
 8224WAT     H125074   4.271   7.222   0.807  0.1124  1.1856  0.0253
 8224WAT     H225075   4.416   7.203   0.846 -0.7630 -2.5474  1.8744
 8225WAT      O25076   5.173   1.436   3.882 -0.0609  0.0929  0.1593
 8225WAT     H125077   5.102   1.421   3.945 -0.6419 -0.7682 -0.6719
 8225WAT     H225078   5.253   1.426   3.934 -0.5221  1.8485  1.2848
 8226WAT      O25079   4.426   4.244   3.478 -0.1842 -0.4976 -0.9930
 8226WAT     H125080   4.396   4.219   3.566 -0.5271  2.0151 -0.3176
 8226WAT     H225081   4.366   4.199   3.419 -0.2974 -1.7883  0.0590
 8227WAT      O25082   7.449   2.811   1.606  0.3405 -0.0901 -0.2878
 8227WAT     H125083   7.395   2.745   1.560  0.4161 -1.3968  1.3987
 8227WAT     H225084   7.402   2.827   1.688 -0.0700  2.5974 -0.9680
 8228WAT      O25085   4.213   5.803   5.459 -0.4040  0.2496 -0.2178
 8228WAT     H125086   4.149   5.770   5.523 -0.4866  1.8841  0.6230
 8228WAT     H225087   4.263   5.868   5.508  0.2834  0.7448 -1.5328
 8229WAT      O25088   5.767   2.083   4.567  0.0621 -0.3203 -0.8487
 8229WAT     H125089   5.716   2.081   4.649  1.3941  0.0563  0.0291
 8229WAT     H225090   5.704   2.109   4.500 -0.7533  0.8465  0.3164
 8230WAT      O25091   2.097   4.654   0.048 -0.4488  0.4950  0.6982
 8230WAT     H125092   2.180   4.617   0.018 -2.2322 -2.5834 -1.0149
 8230WAT     H225093   2.091   4.739   0.003  1.4921  0.5449  0.4475
 8231WAT      O25094   2.841   4.406   4.356 -0.7214 -0.3607  0.4436
 8231WAT     H125095   2.807   4.346   4.290 -2.2796  1.2826 -0.3275
 8231WAT     H225096   2.866   4.350   4.429 -2.2773 -1.9376 -0.1709
 8232WAT      O25097   2.102   3.381   5.992 -0.1021 -0.0386  0.1633
 8232WAT     H125098   2.029   3.319   5.984  0.0594 -0.1525 -0.5145
 8232WAT     H225099   2.096   3.414   6.081 -0.1879 -1.0405  0.5450
 8233WAT      O25100   7.355   6.647   3.830  0.2181 -0.4863  0.3554
 8233WAT     H125101   7.403   6.569   3.858 -0.5717 -0.8813  0.6444
 8233WAT     H225102   7.292   6.663   3.900  0.1652  0.2263  0.1512
 8234WAT      O25103   2.829   6.179   3.503 -0.1572  0.2459 -0.0322
 8234WAT     H125104   2.846   6.218   3.417 -1.2899 -0.8217 -0.7745
 8234WAT     H225105   2.904   6.122   3.519 -1.0413 -1.4102 -1.4673
 8235WAT      O25106   5.986   2.769   4.261  0.4698 -0.1672  0.2466
 8235WAT     H125107   6.082   2.766   4.264  0.5203  1.1897  0.5765
 8235WAT     H225108   5.965   2.861   4.274 -0.8851 -0.4324  0.0292
 8236WAT      O25109   3.387   5.260   5.939 -0.1842  0.1935  0.4998
 8236WAT     H125110   3.326   5.308   5.995 -1.3672 -1.7182  0.9564
 8236WAT     H225111   3.428   5.196   5.997  0.2489 -0.3360 -0.3674
 8237WAT      O25112   4.029   4.311   2.897 -0.2343 -0.7965  0.0113
 8237WAT     H125113   4.027   4.309   2.801  1.0956 -1.6249 -0.0174
 8237WAT     H225114   4.059   4.400   2.918  0.0262 -0.7944 -0.3514
 8238WAT      O25115   3.146   2.345   0.208 -0.0600 -0.0708 -0.4262
 8238WAT     H125116   3.103   2.278   0.261  0.2375 -0.0054 -0.1016
 8238WAT     H225117   3.208   2.387   0.267 -2.0383  2.2589  0.1560
 8239WAT      O25118   6.995   5.988   1.089  0.0784  0.1174 -0.2602
 8239WAT     H125119   6.977   6.028   1.003  0.6069  1.3853  0.1952
 8239WAT     H225120   7.008   6.062   1.147 -0.1130 -0.7382  0.8990
 8240WAT      O25121   3.727   2.728   3.501  0.3879 -0.0980 -0.3936
 8240WAT     H125122   3.679   2.678   3.566  1.3321  0.0642  0.4490
 8240WAT     H225123   3.772   2.662   3.448 -0.3570 -0.2286 -0.8730
 8241WAT      O25124   2.861   6.520   2.916 -0.2947  0.8258 -0.3739
 8241WAT     H125125   2.926   6.501   2.983  0.5150  1.6096 -0.9134
 8241WAT     H225126   2.858   6.442   2.861  0.0438  0.7156 -0.2327
 8242WAT      O25127   7.458   0.834   0.651  0.0119 -0.1347  0.0491
 8242WAT     H125128   7.527   0.871   0.707  1.7301  0.5260 -2.3578
 8242WAT     H225129   7.491   0.747   0.628 -0.3608 -0.1420 -0.4499
 8243WAT      O25130   2.528   5.616   4.374  0.0209  0.3559 -0.0281
 8243WAT     H125131   2.588   5.690   4.371  2.8258 -1.7431 -0.2508
 8243WAT     H225132   2.518   5.597   4.467  0.4332  0.2021 -0.0112
 8244WAT      O25133   2.704   6.786   1.946 -0.6639  0.0071  0.4519
 8244WAT     H125134   2.727   6.702   1.908 -1.0847 -0.2565  0.7772
 8244WAT     H225135   2.755   6.790   2.027 -0.6620  0.0557  0.4485
 8245WAT      O25136   3.061   2.975   4.593 -0.2879  0.2952  0.2103
 8245WAT     H125137   2.975   2.932   4.593  0.0774 -0.4785  1.4301
 8245WAT     H225138   3.054   3.042   4.525 -1.0378 -1.3620 -1.4325
 8246WAT      O25139   1.062   6.030   5.221 -0.5094  0.6487  0.3303
 8246WAT     H125140   1.072   6.125   5.213 -2.1214  0.7069 -1.9337
 8246WAT     H225141   1.013   6.018   5.302  2.9849  1.3507  2.8221
 8247WAT      O25142   3.405   0.061   2.081  0.1040  0.0858 -0.0585
 8247WAT     H125143   3.334   0.125   2.085  1.2584  1.5713 -1.6892
 8247WAT     H225144   3.421   0.037   2.172 -1.1375  1.2474  0.4968
 8248WAT      O25145   3.046   6.802   0.138  0.1769  0.4066 -0.4220
 8248WAT     H125146   3.131   6.790   0.095  0.4104  0.5798 -0.0182
 8248WAT     H225147   3.064   6.865   0.208 -0.1791  0.0869 -0.0361
 8249WAT      O25148   0.984   0.901   3.653 -0.2949  0.4607  0.4717
 8249WAT     H125149   1.008   0.994   3.654  1.2540  0.1079 -0.2960
 8249WAT     H225150   1.009   0.869   3.740 -1.1450  0.8219  0.8566
 8250WAT      O25151   5.611   4.157   3.296  0.4099  0.1574 -0.4253
 8250WAT     H125152   5.625   4.143   3.202  2.8078  2.5322 -0.5436
 8250WAT     H225153   5.584   4.249   3.303  0.3173  0.0383  1.2034
 8251WAT      O25154   1.291   2.079   4.282  0.1456 -0.6067 -0.4913
 8251WAT     H125155   1.334   2.164   4.292  0.1535 -0.3721 -2.2458
 8251WAT     H225156   1.255   2.060   4.369  0.2382  1.1388 -0.0391
 8252WAT      O25157   2.675   2.124   5.639  0.0871 -0.4857 -0.1581
 8252WAT     H125158   2.636   2.071   5.570  2.1868  0.0768 -1.9006
 8252WAT     H225159   2.735   2.065   5.684  1.3159 -0.0193 -1.1318
 8253WAT      O25160   4.693   3.691   0.579  0.5646  0.1127 -0.0706
 8253WAT     H125161   4.775   3.718   0.621 -0.4111  0.9888  1.3969
 8253WAT     H225162   4.677   3.603   0.612 -0.8182  1.2288  2.5920
 8254WAT      O25163   2.826   2.868   4.225 -0.3068 -0.3778 -0.7233
 8254WAT     H125164   2.777   2.930   4.279  0.5604 -0.2664 -0.0368
 8254WAT     H225165   2.781   2.784   4.238 -0.7758 -0.1298 -0.7257
 8255WAT      O25166   3.994   5.150   0.069 -0.4092  0.0444 -0.0260
 8255WAT     H125167   3.946   5.230   0.091 -0.6535 -0.1803  0.2716
 8255WAT     H225168   3.992   5.099   0.150 -0.7132 -0.4956 -0.3720
 8256WAT      O25169   6.307   5.090   0.661 -0.4235 -0.4363 -0.1157
 8256WAT     H125170   6.251   5.095   0.739  1.3604  1.5474  1.1679
 8256WAT     H225171   6.374   5.025   0.685  1.9175  2.2929  1.4531
 8257WAT      O25172   7.008   6.689   0.745  0.0539 -0.1045 -0.2289
 8257WAT     H125173   7.000   6.770   0.796  0.9661  0.7459 -1.3627
 8257WAT     H225174   7.054   6.716   0.665 -3.8468 -0.7201 -2.9790
 8258WAT      O25175   7.551   3.218   0.163 -0.5419  0.2709  0.1975
 8258WAT     H125176   7.461   3.214   0.131  0.0665  0.2980 -1.6478
 8258WAT     H225177   7.559   3.305   0.203 -0.8798  0.9424 -1.1467
 8259WAT      O25178   2.925   3.823   5.125 -1.1058  0.4552 -0.3695
 8259WAT     H125179   2.900   3.913   5.146  0.2893  0.3482  2.1788
 8259WAT     H225180   2.874   3.769   5.186 -0.4949 -0.3108 -0.5213
 8260WAT      O25181   3.807   0.965   6.218  0.2009 -0.0627 -0.3329
 8260WAT     H125182   3.859   1.028   6.268 -0.0400 -0.3899  0.3439
 8260WAT     H225183   3.729   0.951   6.271 -1.1817  1.3314 -1.8746
 8261WAT      O25184   2.594   0.590   4.453  0.0947 -0.0124  0.3520
 8261WAT     H125185   2.612   0.604   4.360  0.1489 -1.3154  0.1448
 8261WAT     H225186   2.552   0.670   4.482 -3.3039 -0.8483 -1.6905
 8262WAT      O25187   2.818   1.329   3.085 -0.2091  0.0455 -0.0964
 8262WAT     H125188   2.911   1.330   3.063 -0.7392 -1.8388 -2.8658
 8262WAT     H225189   2.817   1.319   3.181  2.3177  3.3066  0.4519
 8263WAT      O25190   7.412   6.833   0.633 -0.2946  0.5388 -0.3356
 8263WAT     H125191   7.500   6.868   0.648  0.2495 -1.6576  2.3735
 8263WAT     H225192   7.388   6.791   0.716 -3.5798  0.3145 -1.2479
 8264WAT      O25193   3.471   1.265   2.786 -0.0938  0.0773 -0.2449
 8264WAT     H125194   3.393   1.290   2.836  1.1043  2.5531  0.5453
 8264WAT     H225195   3.510   1.194   2.838 -0.6917  0.2749  0.4998
 8265WAT      O25196   0.131   6.946   0.306 -0.0304  0.6765  0.0578
 8265WAT     H125197   0.147   6.887   0.379  0.9345  0.7120 -0.1092
 8265WAT     H225198   0.212   6.998   0.299  0.2043  0.1474 -1.5056
 8266WAT      O25199   1.628   5.573   4.065  0.4111  0.4951 -0.2890
 8266WAT     H125200   1.645   5.601   4.155  2.3032  1.1716 -0.8078
 8266WAT     H225201   1.679   5.632   4.011 -0.0401 -0.4140 -1.7759
 8267WAT      O25202   3.125   4.709   3.951 -0.1697 -0.1521 -0.4237
 8267WAT     H125203   3.130   4.617   3.924  1.8502 -0.2125  0.0331
 8267WAT     H225204   3.215   4.732   3.973 -0.5842  2.0589 -0.8936
 8268WAT      O25205   3.722   1.622   4.800  0.4613 -0.4915 -0.5365
 8268WAT     H125206   3.736   1.610   4.894 -0.1972  2.1050 -0.0427
 8268WAT     H225207   3.792   1.680   4.772 -0.1899 -0.0644 -1.3320
 8269WAT      O25208   3.002   2.449   5.393 -0.0355 -0.7153 -0.4872
 8269WAT     H125209   3.033   2.370   5.438 -0.1067 -0.2019  0.4863
 8269WAT     H225210   3.081   2.501   5.378 -0.1745 -0.2200  0.3940
 8270WAT      O25211   2.753   0.104   2.124 -0.1284 -0.2091  0.4800
 8270WAT     H125212   2.694   0.032   2.149  0.8878 -1.2103  0.0731
 8270WAT     H225213   2.695   0.171   2.087 -0.8488 -2.0442 -1.9325
 8271WAT      O25214   3.325   5.533   2.631  0.0470  0.0461  0.0756
 8271WAT     H125215   3.250   5.475   2.637 -0.6373  0.7172 -1.3642
 8271WAT     H225216   3.337   5.567   2.719  0.5203 -2.2792  0.9730
 8272WAT      O25217   5.114   0.037   4.676  0.1935  0.0040  0.2852
 8272WAT     H125218   5.052   0.076   4.614  0.4326 -0.4643 -0.2572
 8272WAT     H225219   5.195   0.085   4.661  0.1117  0.2491  0.6138
 8273WAT      O25220   2.791   6.824   1.465 -0.7582  0.4608  0.4653
 8273WAT     H125221   2.867   6.819   1.407  0.6480 -1.4419  2.3000
 8273WAT     H225222   2.822   6.874   1.541 -1.9609  1.2762  0.4431
 8274WAT      O25223   3.701   2.128   5.710 -0.4727  0.3028 -0.4748
 8274WAT     H125224   3.676   2.220   5.702  0.0837  0.5470  0.5213
 8274WAT     H225225   3.765   2.126   5.781 -0.3498 -0.8309 -0.5994
 8275WAT      O25226   1.253   2.951   2.513 -0.4344 -0.0150  0.1559
 8275WAT     H125227   1.195   2.900   2.456 -2.6619  0.5301  1.8022
 8275WAT     H225228   1.204   3.032   2.530  0.5998  0.2613  2.0282
 8276WAT      O25229   4.214   6.291   3.179 -0.1791 -0.0898  0.4980
 8276WAT     H125230   4.140   6.270   3.123  1.4680  0.2093 -1.9015
 8276WAT     H225231   4.189   6.255   3.265 -2.2224 -1.7253 -0.6839
 8277WAT      O25232   3.042   5.108   3.559  0.2734 -0.4283  0.1342
 8277WAT     H125233   3.070   5.111   3.651  1.3468 -0.6127 -0.1736
 8277WAT     H225234   3.064   5.020   3.530  1.3984  0.1154 -0.7335
 8278WAT      O25235   3.214   2.548   0.424 -0.8035  0.4527 -0.2036
 8278WAT     H125236   3.182   2.503   0.502 -2.9327  0.1291 -1.1739
 8278WAT     H225237   3.176   2.636   0.431 -1.0414  0.4073 -0.8721
 8279WAT      O25238   5.626   1.945   1.769 -0.4554  0.1636  0.6208
 8279WAT     H125239   5.545   1.964   1.816 -1.1036 -0.7029 -0.0930
 8279WAT     H225240   5.639   1.851   1.782 -1.1934 -0.3229 -1.6859
 8280WAT      O25241   2.743   1.833   1.561 -0.0051  0.2932  0.2326
 8280WAT     H125242   2.839   1.831   1.562 -0.0087 -1.1408  1.0485
 8280WAT     H225243   2.720   1.836   1.468  0.8403 -0.0300  0.0015
 8281WAT      O25244   5.722   0.014   5.410  1.1428 -0.1000  0.5511
 8281WAT     H125245   5.785  -0.045   5.452 -0.2640 -3.1926 -1.3761
 8281WAT     H225246   5.641  -0.036   5.406  0.0762  1.6424 -1.9868
 8282WAT      O25247   1.232   1.906   5.965 -0.4660  0.1660 -0.0470
 8282WAT     H125248   1.210   1.820   6.000 -1.4564  0.2268 -0.4793
 8282WAT     H225249   1.183   1.968   6.020  0.5584  0.4899  0.5187
 8283WAT      O25250   3.557   1.267   5.856  0.3265 -0.2900 -0.2402
 8283WAT     H125251   3.491   1.303   5.797 -2.7208 -0.5106  2.7091
 8283WAT     H225252   3.585   1.342   5.909 -0.5232 -0.8526  1.0558
 8284WAT      O25253   0.832   6.615   1.052  0.1560  0.1118  0.1342
 8284WAT     H125254   0.850   6.651   1.139 -0.3702  0.9795 -0.0921
 8284WAT     H225255   0.737   6.604   1.051  0.2572 -0.7874 -0.0074
 8285WAT      O25256   0.952   0.325   6.137 -0.3607 -0.5815 -0.6100
 8285WAT     H125257   0.932   0.415   6.165  0.4861  0.0022 -1.7971
 8285WAT     H225258   0.936   0.272   6.215  2.1505  0.9781  1.1029
 8286WAT      O25259   1.729   1.290   5.892  0.1795 -0.2912  0.3856
 8286WAT     H125260   1.759   1.331   5.811 -0.2256 -1.2901 -0.2776
 8286WAT     H225261   1.783   1.331   5.960  1.8353 -0.7985 -0.5717
 8287WAT      O25262   5.391   2.008   0.454  0.5974 -0.3314  0.6691
 8287WAT     H125263   5.464   2.008   0.516  0.8212  0.5706  0.4190
 8287WAT     H225264   5.420   1.951   0.383  1.3733  0.5771  0.2317
 8288WAT      O25265   7.048   6.162   2.895 -0.3084 -0.1400  0.3819
 8288WAT     H125266   7.127   6.179   2.947 -0.3605  1.7756 -0.0859
 8288WAT     H225267   7.031   6.069   2.907  1.2967 -0.3303  1.5136
 8289WAT      O25268   6.764   2.720   5.012  0.5478  0.1598 -0.7332
 8289WAT     H125269   6.836   2.688   4.957  1.4074  2.2997 -0.9212
 8289WAT     H225270   6.807   2.763   5.086 -0.5579  0.4022 -0.2068
 8290WAT      O25271   6.140   3.862   2.176  0.0736  0.7326  0.0357
 8290WAT     H125272   6.196   3.845   2.252 -1.2617 -2.9256  0.3988
 8290WAT     H225273   6.192   3.832   2.102  0.0331  1.0213 -0.1116
 8291WAT      O25274   6.460   0.292   1.608  0.1562 -0.8684 -0.1333
 8291WAT     H125275   6.483   0.200   1.618  0.0968 -1.2965 -3.0184
 8291WAT     H225276   6.474   0.310   1.515 -1.3538  1.6215  0.0301
 8292WAT      O25277   4.244   2.879   3.766 -0.0144 -0.1551 -0.2506
 8292WAT     H125278   4.281   2.795   3.793 -0.1628 -0.2778 -0.4266
 8292WAT     H225279   4.306   2.912   3.701  0.2179  0.0294  0.0567
 8293WAT      O25280   0.569   3.956   5.032  0.0722 -0.1701  0.0722
 8293WAT     H125281   0.549   3.903   5.110  0.4020 -2.0603 -1.0528
 8293WAT     H225282   0.631   4.022   5.064 -1.9090  0.8941  1.9560
 8294WAT      O25283   1.268   2.573   0.009  0.3304 -0.6259  0.1903
 8294WAT     H125284   1.315   2.627   0.072 -1.0921 -0.2774  1.0027
 8294WAT     H225285   1.183   2.556   0.051 -0.4052 -0.9188 -1.3515
 8295WAT      O25286   5.716   6.044   5.889  0.2690 -0.4707 -0.0914
 8295WAT     H125287   5.631   6.052   5.931  0.1501  0.6502 -0.5044
 8295WAT     H225288   5.711   5.963   5.839  0.0086 -1.2280  1.1160
 8296WAT      O25289   4.450   0.558   2.240 -0.1051 -0.7509  0.3163
 8296WAT     H125290   4.453   0.639   2.190  0.7722 -0.0952  1.3751
 8296WAT     H225291   4.388   0.576   2.311  2.2631  0.1358  2.3189
 8297WAT      O25292   5.887   3.760   2.540  0.0931 -0.1088  0.3730
 8297WAT     H125293   5.974   3.779   2.575  0.6930 -0.3022 -0.9671
 8297WAT     H225294   5.830   3.764   2.617  1.1500  0.7801  1.1557
 8298WAT      O25295   1.414   5.532   5.522  0.0840 -0.2394 -0.2329
 8298WAT     H125296   1.481   5.489   5.470  1.0103 -1.9341  2.1640
 8298WAT     H225297   1.456   5.612   5.553  0.2950 -0.3055 -0.3460
 8299WAT      O25298   4.023   1.440   2.898 -0.0909  0.2732  0.4705
 8299WAT     H125299   3.944   1.442   2.952 -0.2288  2.8664  0.3093
 8299WAT     H225300   4.085   1.498   2.944  0.1124  1.8064 -1.5781
 8300WAT      O25301   2.154   5.347   4.092  0.1979 -0.2512 -0.3870
 8300WAT     H125302   2.189   5.275   4.144  1.6188  0.9915  0.4800
 8300WAT     H225303   2.193   5.425   4.131 -0.2797  0.8946 -2.0917
 8301WAT      O25304   3.045   5.951   2.508  0.2793 -0.3286  0.1776
 8301WAT     H125305   2.986   5.973   2.436 -0.2681 -1.5436  0.2508
 8301WAT     H225306   3.127   5.926   2.464  0.2900 -0.0476  0.0296
 8302WAT      O25307   4.708   5.328   2.404  0.1464  0.1067  0.2121
 8302WAT     H125308   4.731   5.277   2.327 -1.7828 -2.3867  1.1411
 8302WAT     H225309   4.788   5.375   2.426  1.1380 -0.1471 -2.4830
 8303WAT      O25310   0.005   6.297   2.127  0.5093 -0.0988  0.7038
 8303WAT     H125311  -0.060   6.354   2.167  0.5927 -0.0145  0.7189
 8303WAT     H225312   0.066   6.276   2.197  0.4982 -0.1803  0.6903
 8304WAT      O25313   6.775   4.065   0.348 -0.1642 -0.0750  0.5040
 8304WAT     H125314   6.847   4.004   0.331 -1.0561 -0.3881 -2.8878
 8304WAT     H225315   6.745   4.042   0.436  1.5654 -2.3780  0.5895
 8305WAT      O25316   2.466   4.519   5.044 -0.1613  0.1757 -0.3220
 8305WAT     H125317   2.499   4.551   5.129 -0.0628  0.1553 -0.3524
 8305WAT     H225318   2.514   4.438   5.029  0.3098  0.5193 -0.7122
 8306WAT      O25319   1.526   6.045   3.210  0.6432 -0.1016 -0.2721
 8306WAT     H125320   1.495   5.980   3.273  1.0406 -2.1545 -2.0948
 8306WAT     H225321   1.619   6.056   3.230  0.1842  1.5138  1.3076
 8307WAT      O25322   2.725   6.160   0.156  0.2016 -0.2978  0.0406
 8307WAT     H125323   2.653   6.212   0.120  0.5988 -0.2645 -0.7100
 8307WAT     H225324   2.682   6.098   0.216 -0.2949  0.7359  0.7787
 8308WAT      O25325   0.870   0.039   5.102  0.4165 -0.0136  0.2087
 8308WAT     H125326   0.876   0.026   5.197 -1.6678  0.7821  0.4881
 8308WAT     H225327   0.878   0.133   5.089  0.6818 -0.1142 -0.4390
 8309WAT      O25328   1.698   2.245   0.874  0.1762 -0.0877  0.2444
 8309WAT     H125329   1.613   2.279   0.847  0.0199 -0.4283  0.3169
 8309WAT     H225330   1.680   2.191   0.951  0.3499 -0.8126 -0.2133
 8310WAT      O25331   5.847   4.903   3.035 -0.0136 -0.1261  0.0815
 8310WAT     H125332   5.922   4.844   3.037  1.9553  2.2303  1.6995
 8310WAT     H225333   5.780   4.859   3.087  1.9855 -0.2877  2.6828
 8311WAT      O25334   1.742   3.914   4.665 -0.0543  0.4255 -0.1187
 8311WAT     H125335   1.771   3.843   4.608 -1.4369 -1.3567  1.2852
 8311WAT     H225336   1.807   3.917   4.735  0.2629  0.9121 -0.4218
 8312WAT      O25337   0.441   6.162   5.136 -0.1686  0.2098  0.6526
 8312WAT     H125338   0.358   6.176   5.092  0.6923 -0.3512 -1.2556
 8312WAT     H225339   0.479   6.249   5.144 -0.6023  0.3819  0.8545
 8313WAT      O25340   4.571   1.310   0.531 -0.2507  0.3643 -0.0768
 8313WAT     H125341   4.537   1.299   0.442  1.0727 -3.7547 -0.2685
 8313WAT     H225342   4.665   1.320   0.520 -0.2102  1.2309  0.8777
 8314WAT      O25343   4.636   1.719   5.686 -0.1075 -0.1898 -0.2328
 8314WAT     H125344   4.715   1.732   5.738 -0.5224  1.3706  0.0800
 8314WAT     H225345   4.605   1.808   5.668 -1.7038 -0.7630 -0.4852
 8315WAT      O25346   1.030   1.421   3.801 -0.3902  0.1488 -0.1018
 8315WAT     H125347   1.028   1.386   3.890 -1.3891 -0.5964 -0.4050
 8315WAT     H225348   0.981   1.503   3.806  0.5015  0.6691  0.2554
 8316WAT      O25349   5.488   3.021   6.159 -0.3701 -0.2130 -0.2505
 8316WAT     H125350   5.538   2.971   6.094  2.3098  0.6800  0.9800
 8316WAT     H225351   5.554   3.053   6.220 -2.4914  1.2199  1.4266
 8317WAT      O25352   3.596   4.461   0.558  0.3324  0.0638 -0.0517
 8317WAT     H125353   3.501   4.460   0.572  0.4943 -0.7543  1.1554
 8317WAT     H225354   3.633   4.449   0.645  1.5816  1.4913 -0.3546
 8318WAT      O25355   3.877   3.905   3.690  0.4750  0.0700 -0.1760
 8318WAT     H125356   3.873   3.810   3.700  2.3719  0.0375  0.7914
 8318WAT     H225357   3.808   3.938   3.747  0.5705 -0.7039  0.4130
 8319WAT      O25358   4.035   1.951   5.149  0.3961 -0.1299  0.5228
 8319WAT     H125359   4.054   1.873   5.201  2.0659 -0.1603 -0.0410
 8319WAT     H225360   4.024   2.021   5.213  0.9398 -0.4481  0.9722
 8320WAT      O25361   6.000   3.518   0.786  0.2720 -0.0788 -0.4214
 8320WAT     H125362   5.941   3.590   0.806 -0.5320 -1.0220  0.7383
 8320WAT     H225363   5.979   3.451   0.851  2.7324 -0.3938  0.1759
 8321WAT      O25364   1.404   5.031   1.541 -0.1696 -0.2130  0.3474
 8321WAT     H125365   1.437   5.119   1.525  0.6285 -0.5081  0.3524
 8321WAT     H225366   1.369   5.033   1.630 -0.1993  0.1138  0.3266
 8322WAT      O25367   6.089   7.176   1.230 -0.1010 -0.2582  0.5489
 8322WAT     H125368   6.156   7.176   1.162  0.6408  1.1121  1.2307
 8322WAT     H225369   6.135   7.203   1.309 -0.8351 -2.3284  1.7421
 8323WAT      O25370   4.397   3.567   2.882  0.1295  0.3242 -0.3232
 8323WAT     H125371   4.487   3.596   2.892  0.2795 -0.4558  0.7053
 8323WAT     H225372   4.355   3.589   2.965 -0.6830  0.8407 -0.8538
 8324WAT      O25373   6.570   0.550   0.267 -0.1194 -0.0341 -0.0801
 8324WAT     H125374   6.560   0.507   0.352  0.7124  0.9022  0.5213
 8324WAT     H225375   6.664   0.543   0.249 -0.0139  1.2263 -0.1091
 8325WAT      O25376   3.056   5.051   4.905  0.3562 -0.0659 -0.1330
 8325WAT     H125377   3.079   5.125   4.961 -0.8142  1.1387 -1.1682
 8325WAT     H225378   3.021   4.985   4.965  0.5237  0.5897  0.7012
 8326WAT      O25379   2.267   3.762   3.391 -0.4376  0.0886  0.0182
 8326WAT     H125380   2.231   3.696   3.332 -0.1357  1.1480 -1.4483
 8326WAT     H225381   2.214   3.840   3.375 -0.0122  0.5477  0.7728
 8327WAT      O25382   3.795   7.029   2.727  0.4604 -0.2189  0.2123
 8327WAT     H125383   3.866   7.065   2.781  0.8203 -1.6028  0.7130
 8327WAT     H225384   3.718   7.080   2.752  0.8713 -0.0199  1.1379
 8328WAT      O25385   1.002   3.363   5.796 -0.2454  0.4606 -0.5746
 8328WAT     H125386   1.051   3.440   5.768 -1.2270  1.2530 -0.1935
 8328WAT     H225387   0.912   3.380   5.768 -0.6082 -0.2457  0.1043
 8329WAT      O25388   5.960   3.929   1.907  0.4444 -0.2736  0.1656
 8329WAT     H125389   6.054   3.943   1.900  0.3495  0.6066  0.5499
 8329WAT     H225390   5.934   3.976   1.986 -0.1427 -1.4540  0.7106
 8330WAT      O25391   0.027   3.126   4.241  0.0348 -0.8997 -0.2250
 8330WAT     H125392  -0.036   3.065   4.279 -0.5033  0.2076  0.7306
 8330WAT     H225393   0.004   3.211   4.280  0.0556  0.1267 -2.3066
 8331WAT      O25394   7.310   0.795   0.975 -0.2687  0.4825  0.4295
 8331WAT     H125395   7.338   0.823   0.888 -1.6146 -2.2039 -1.0003
 8331WAT     H225396   7.381   0.740   1.007 -0.0271  1.0015  0.8010
 8332WAT      O25397   0.749   5.800   0.568 -0.2238  0.1527  0.0183
 8332WAT     H125398   0.698   5.807   0.649 -1.5782  1.4936 -0.8906
 8332WAT     H225399   0.721   5.875   0.515  2.5209  0.7888 -0.6751
 8333WAT      O25400   1.105   6.590   4.425 -0.3719 -0.3478 -0.1555
 8333WAT     H125401   1.148   6.674   4.438  2.0600 -1.4010 -0.7466
 8333WAT     H225402   1.033   6.589   4.487  0.9111  1.2577  1.4435
 8334WAT      O25403   7.065   3.274   3.621 -0.1642 -0.0581  0.0441
 8334WAT     H125404   6.993   3.241   3.675  0.4764 -0.5410  0.6376
 8334WAT     H225405   7.038   3.362   3.595 -0.7164 -0.0145  0.7376
 8335WAT      O25406   3.609   3.516   4.493  0.0525  0.2030  0.0776
 8335WAT     H125407   3.662   3.590   4.462 -0.0396 -0.2383 -1.2297
 8335WAT     H225408   3.667   3.440   4.485 -0.6464 -0.2450 -1.1308
 8336WAT      O25409   5.254   2.155   0.977 -0.1632 -0.3619 -0.0822
 8336WAT     H125410   5.253   2.251   0.983  0.9600 -0.3059 -0.4227
 8336WAT     H225411   5.185   2.126   1.036 -0.9837  0.6840 -0.5013
 8337WAT      O25412   2.765   5.297   5.311  0.2787 -0.5111  0.2958
 8337WAT     H125413   2.819   5.362   5.356 -0.3936 -0.5415  1.1843
 8337WAT     H225414   2.675   5.321   5.334  0.0167 -1.6906  0.5546
 8338WAT      O25415   3.321   1.668   0.227  0.7082  0.4152 -0.4229
 8338WAT     H125416   3.238   1.715   0.233  1.5932  2.0798 -0.4041
 8338WAT     H225417   3.351   1.661   0.317  0.4761 -0.4029 -0.4072
 8339WAT      O25418   1.477   2.152   1.459 -0.1120 -0.0674 -0.0453
 8339WAT     H125419   1.460   2.197   1.376  2.2001  1.1387  0.0584
 8339WAT     H225420   1.391   2.147   1.501 -0.8098  2.5538 -0.9265
 8340WAT      O25421   5.062   4.059   3.437  0.3381  0.0450  0.4841
 8340WAT     H125422   4.997   4.078   3.504  0.4314 -0.4803  0.7250
 8340WAT     H225423   5.099   3.975   3.462 -0.1019 -0.4843 -0.5933
 8341WAT      O25424   5.556   3.620   3.828 -0.0913 -0.3561 -0.6845
 8341WAT     H125425   5.511   3.540   3.852 -2.5118  0.5792 -1.8196
 8341WAT     H225426   5.632   3.623   3.886 -0.6501 -2.7747  0.2717
 8342WAT      O25427   2.726   4.533   4.800  0.2589  0.4974  0.5756
 8342WAT     H125428   2.681   4.616   4.814 -0.9511  0.2243 -1.2902
 8342WAT     H225429   2.683   4.495   4.723  2.0841 -0.9406  0.1862
 8343WAT      O25430   3.370   3.600   4.592 -0.0652  0.0663 -0.0670
 8343WAT     H125431   3.320   3.521   4.577 -0.3292  0.5895 -2.1711
 8343WAT     H225432   3.462   3.572   4.585 -0.1168 -0.2607  0.4698
 8344WAT      O25433   2.226   2.647   5.951 -0.0202 -0.2366  0.6062
 8344WAT     H125434   2.309   2.602   5.935 -0.3801 -0.2202 -1.7169
 8344WAT     H225435   2.161   2.576   5.956  0.0599 -0.2296  2.0711
 8345WAT      O25436   0.459   6.007   3.308 -0.5115 -0.2571  0.4385
 8345WAT     H125437   0.529   5.960   3.354  1.5148  0.6095 -1.5551
 8345WAT     H225438   0.415   5.939   3.256 -0.2618 -0.5855  0.6509
 8346WAT      O25439   2.960   1.397   5.282  0.4335  0.2824  0.0955
 8346WAT     H125440   3.055   1.399   5.275  0.4210  0.0376 -0.1639
 8346WAT     H225441   2.932   1.333   5.217  0.1545 -0.3611  0.8276
 8347WAT      O25442   0.635   4.780   2.542 -0.5471  0.3330  0.7847
 8347WAT     H125443   0.669   4.815   2.460 -0.3194 -1.4305  0.0828
 8347WAT     H225444   0.693   4.815   2.610  0.2010  0.5853  0.0298
 8348WAT      O25445   1.387   4.882   0.689  0.7054  0.1058 -0.2523
 8348WAT     H125446   1.437   4.832   0.625  1.1187  1.7997 -1.3440
 8348WAT     H225447   1.334   4.942   0.636 -0.6577  0.0175  0.9578
 8349WAT      O25448   2.376   6.374   4.536 -0.0474 -0.0350  0.6385
 8349WAT     H125449   2.321   6.369   4.614 -0.1691 -2.1847  0.4799
 8349WAT     H225450   2.337   6.312   4.474 -0.1148  1.7986 -1.2879
 8350WAT      O25451   3.851   0.952   4.657 -0.2072  0.1554  0.2720
 8350WAT     H125452   3.843   1.013   4.730  0.3955  1.2076 -0.5066
 8350WAT     H225453   3.791   0.987   4.590  1.7388  1.2416 -1.0310
 8351WAT      O25454   7.115   6.566   0.962  0.4644 -0.5282  0.2424
 8351WAT     H125455   7.036   6.612   0.932  1.1682  1.8510  1.7324
 8351WAT     H225456   7.126   6.594   1.053  2.8009 -1.0889  0.2060
 8352WAT      O25457   1.991   2.507   0.263  0.2450  0.3296  0.3544
 8352WAT     H125458   1.919   2.563   0.292  0.7371  1.5681 -0.7107
 8352WAT     H225459   2.062   2.527   0.323  0.0378 -0.1110  0.7542
 8353WAT      O25460   3.455   4.170   4.009 -0.7167  0.1668 -0.0381
 8353WAT     H125461   3.467   4.247   4.063 -0.5647  0.4516 -0.4707
 8353WAT     H225462   3.416   4.203   3.928 -1.2171 -0.2871  0.0067
 8354WAT      O25463   0.865   2.269   0.260  0.0285 -1.0778 -0.4046
 8354WAT     H125464   0.836   2.242   0.348 -0.4240  0.4253 -0.0672
 8354WAT     H225465   0.786   2.266   0.207  0.1359 -1.1739 -0.5589
 8355WAT      O25466   3.866   2.113   4.174  0.5031  0.5023 -0.3515
 8355WAT     H125467   3.847   2.023   4.200 -0.7044  0.8597  0.1070
 8355WAT     H225468   3.782   2.147   4.142  1.3462  0.9237 -2.2611
 8356WAT      O25469   0.470   1.040   6.138  0.6817 -0.5861 -0.1417
 8356WAT     H125470   0.501   0.953   6.162  1.7009 -0.3549 -0.5689
 8356WAT     H225471   0.432   1.075   6.219  0.2478 -1.4181  0.0303
 8357WAT      O25472   3.995   1.852   3.624 -0.2856  0.6341  0.0536
 8357WAT     H125473   3.995   1.766   3.665 -1.1892 -0.4263 -1.9967
 8357WAT     H225474   3.912   1.892   3.651 -0.6551  0.1334 -0.3073
 8358WAT      O25475   6.085   4.279   5.950 -0.3280  0.5849 -0.4480
 8358WAT     H125476   6.124   4.335   6.017 -1.3318 -0.3184  0.9506
 8358WAT     H225477   6.098   4.190   5.983 -2.1830  0.1897 -0.6725
 8359WAT      O25478   6.955   6.794   3.589 -0.0127 -0.0231 -0.2645
 8359WAT     H125479   6.957   6.698   3.578  1.3025  0.0841 -1.3295
 8359WAT     H225480   7.042   6.815   3.624 -0.5453  0.7373  0.6563
 8360WAT      O25481   1.132   4.610   1.778 -0.0870 -0.3131  0.7994
 8360WAT     H125482   1.120   4.534   1.835 -0.5777  0.3068  1.5359
 8360WAT     H225483   1.176   4.675   1.833 -1.3511  0.6118  0.7471
 8361WAT      O25484   6.474   3.082   0.345  0.1670 -0.1665 -0.5123
 8361WAT     H125485   6.447   3.057   0.434  0.5671 -1.6761 -0.7800
 8361WAT     H225486   6.552   3.029   0.329  0.6320  0.7791 -1.4288
 8362WAT      O25487   2.507   5.769   5.105 -0.2717  0.0808  0.1580
 8362WAT     H125488   2.580   5.722   5.145 -0.3867 -0.8952 -0.7440
 8362WAT     H225489   2.429   5.733   5.147 -0.2609  0.9369  0.9327
 8363WAT      O25490   7.181   4.825   5.665 -0.0771 -0.1474  0.0374
 8363WAT     H125491   7.119   4.896   5.682  1.7071  1.8878 -1.4180
 8363WAT     H225492   7.210   4.797   5.752 -1.0615  0.6776  0.6516
 8364WAT      O25493   3.627   3.748   0.583 -0.0110 -0.3087 -0.3360
 8364WAT     H125494   3.567   3.797   0.638  0.8570  0.4560 -0.0332
 8364WAT     H225495   3.657   3.675   0.638 -1.1138 -1.0606 -0.7028
 8365WAT      O25496   0.500   6.145   0.764  0.2873  0.0618 -0.2112
 8365WAT     H125497   0.548   6.174   0.687  0.2390  1.1067  0.1417
 8365WAT     H225498   0.565   6.141   0.834 -0.2502  2.4022  0.5046
 8366WAT      O25499   6.134   3.448   4.304  0.0713 -0.2359  0.1912
 8366WAT     H125500   6.074   3.523   4.303 -0.3260 -0.5402 -0.8391
 8366WAT     H225501   6.174   3.450   4.391 -0.7797  0.5004  0.5878
 8367WAT      O25502   0.531   6.997   1.418 -0.6446  0.0948 -0.0711
 8367WAT     H125503   0.570   6.910   1.406 -0.9962 -0.2463  1.1310
 8367WAT     H225504   0.443   6.989   1.383  0.1793  0.7979 -2.5649
 8368WAT      O25505   3.524   3.049   2.315 -0.5218 -0.0803  0.1231
 8368WAT     H125506   3.468   3.098   2.375  0.2356  1.4531 -0.3699
 8368WAT     H225507   3.605   3.036   2.364 -0.2680  0.2839 -0.1975
 8369WAT      O25508   0.822   2.491   0.934 -0.1850 -0.5904 -0.3073
 8369WAT     H125509   0.885   2.507   1.005  0.2449 -2.9577 -0.0673
 8369WAT     H225510   0.876   2.492   0.854 -0.0426 -1.3514 -0.2289
 8370WAT      O25511   0.350   1.953   4.603  0.0763  0.4370  0.6501
 8370WAT     H125512   0.377   2.037   4.566  0.0395 -0.0290 -0.5011
 8370WAT     H225513   0.282   1.922   4.543  0.1654 -0.4556  0.9975
 8371WAT      O25514   1.031   6.602   4.137 -0.1487 -0.0092  0.1105
 8371WAT     H125515   1.047   6.588   4.230 -0.5002 -0.7195  0.0738
 8371WAT     H225516   0.958   6.543   4.116 -0.8000  0.9439 -0.3786
 8372WAT      O25517   1.357   0.698   1.556  0.6091  0.2121 -0.3558
 8372WAT     H125518   1.284   0.642   1.585 -0.4256  0.9044 -1.5649
 8372WAT     H225519   1.385   0.742   1.636 -0.8769  0.5798 -0.0017
 8373WAT      O25520   6.157   1.262   3.003 -0.4224  0.1836 -0.0946
 8373WAT     H125521   6.164   1.212   2.922 -1.7125 -0.0084 -0.1050
 8373WAT     H225522   6.203   1.209   3.068 -0.2438 -0.1428 -0.4820
 8374WAT      O25523   5.990   5.648   3.669  0.4131 -0.3767 -0.1282
 8374WAT     H125524   5.918   5.687   3.620 -1.7340 -0.6289  2.5804
 8374WAT     H225525   5.997   5.559   3.636 -0.0182 -0.1268 -0.9217
 8375WAT      O25526   6.727   1.198   5.183 -0.0723 -0.0279 -0.0796
 8375WAT     H125527   6.803   1.144   5.164 -1.1994 -0.9453 -2.3834
 8375WAT     H225528   6.752   1.250   5.259  3.0484  0.1842 -1.1361
 8376WAT      O25529   0.623   7.198   4.364 -0.5548 -0.3441  0.0525
 8376WAT     H125530   0.562   7.260   4.404 -0.8558 -0.0964 -0.7722
 8376WAT     H225531   0.696   7.252   4.333  0.3229 -0.6856  1.4176
 8377WAT      O25532   0.809   2.645   1.287 -0.0577 -0.0757 -0.6366
 8377WAT     H125533   0.889   2.627   1.238  0.0720 -0.5947 -0.2430
 8377WAT     H225534   0.741   2.594   1.242  0.1764 -1.0383  0.0645
 8378WAT      O25535   2.167   6.898   2.062  0.0715  0.0041  0.5888
 8378WAT     H125536   2.201   6.817   2.100 -0.0096 -0.2526  0.1252
 8378WAT     H225537   2.239   6.932   2.009 -0.1096 -0.0967  0.2778
 8379WAT      O25538   3.969   1.851   5.413  0.2393  0.4935  0.3911
 8379WAT     H125539   4.038   1.787   5.393 -0.1820  0.4619 -1.1222
 8379WAT     H225540   3.994   1.888   5.497  2.3110  0.7151 -0.2525
 8380WAT      O25541   4.192   6.209   3.437 -0.3650  0.5665  0.2703
 8380WAT     H125542   4.122   6.191   3.500 -2.2725  1.4996 -1.4978
 8380WAT     H225543   4.264   6.242   3.491 -2.3819  2.6449  1.8800
 8381WAT      O25544   6.562   6.575   3.422 -0.0234 -0.0958  0.0663
 8381WAT     H125545   6.613   6.634   3.366  1.1339 -0.2611  0.9135
 8381WAT     H225546   6.627   6.528   3.474 -1.0397 -0.3240  1.1906
 8382WAT      O25547   7.581   2.747   0.734  0.1199 -0.0286 -0.1651
 8382WAT     H125548   7.614   2.780   0.818  0.1841 -2.4890  0.8581
 8382WAT     H225549   7.553   2.657   0.753  1.0362 -1.0045 -3.0061
 8383WAT      O25550   3.891   5.671   5.998  0.4687 -0.3968 -0.2046
 8383WAT     H125551   3.858   5.640   6.082 -0.3190 -1.9240 -1.0326
 8383WAT     H225552   3.820   5.655   5.937  1.5116 -0.5567 -1.4161
 8384WAT      O25553   5.392   0.431   6.027  0.2427 -0.0699 -0.5595
 8384WAT     H125554   5.396   0.437   6.123 -0.6760  1.1176 -0.5806
 8384WAT     H225555   5.333   0.502   6.001  1.1152  0.1246 -2.0735
 8385WAT      O25556   3.426   6.324   4.412  0.2658 -0.7443  0.0513
 8385WAT     H125557   3.399   6.347   4.501 -0.9838 -0.4908 -0.3641
 8385WAT     H225558   3.517   6.353   4.406  0.0978  0.0213  0.9763
 8386WAT      O25559   1.273   6.760   0.740 -0.0899  0.4029 -0.4697
 8386WAT     H125560   1.326   6.836   0.764 -1.2337  0.9498  0.4513
 8386WAT     H225561   1.212   6.749   0.813 -0.1876 -1.1911 -0.7537
 8387WAT      O25562   2.004   5.375   5.047 -0.3820 -0.2826 -0.1318
 8387WAT     H125563   1.966   5.450   5.093  0.3055  0.1282 -0.2222
 8387WAT     H225564   1.928   5.327   5.015 -0.9591  2.4378 -3.4507
 8388WAT      O25565   7.422   1.952   4.931 -0.0834 -0.4329 -0.2692
 8388WAT     H125566   7.474   2.013   4.984  1.4987 -1.6241 -0.3696
 8388WAT     H225567   7.394   1.884   4.993  2.1749 -2.0891 -0.9527
 8389WAT      O25568   6.133   4.559   5.771  0.0120 -0.3154 -0.1403
 8389WAT     H125569   6.142   4.632   5.832 -0.6261 -0.1867 -0.1986
 8389WAT     H225570   6.106   4.485   5.825 -0.5355 -0.2055 -0.2541
 8390WAT      O25571   0.986   5.147   0.588 -0.2575 -0.2238 -0.5910
 8390WAT     H125572   0.960   5.161   0.679  0.0281 -1.2754 -0.3315
 8390WAT     H225573   1.076   5.115   0.593  0.0008  0.3505 -1.2944
 8391WAT      O25574   3.087   2.849   5.739  0.4931 -0.0138  0.0101
 8391WAT     H125575   3.032   2.887   5.807  0.3902  1.6271 -0.9296
 8391WAT     H225576   3.167   2.823   5.785  0.5232  1.2692  0.7517
 8392WAT      O25577   6.712   3.174   0.084  0.4458  0.7441  0.7384
 8392WAT     H125578   6.751   3.091   0.059  0.0719  0.5454  0.8089
 8392WAT     H225579   6.716   3.174   0.180  0.2467  0.7091  0.7476
 8393WAT      O25580   5.722   1.677   5.049 -0.1786 -0.1020 -0.0704
 8393WAT     H125581   5.771   1.645   5.125 -1.7053  0.4830  1.2158
 8393WAT     H225582   5.667   1.603   5.024  0.5977 -0.4221 -0.8781
 8394WAT      O25583   0.523   2.314   5.586  0.7668  0.0687 -0.1928
 8394WAT     H125584   0.517   2.224   5.619 -0.2453  0.3581  0.4653
 8394WAT     H225585   0.595   2.353   5.635  0.4139 -0.0249  0.4053
 8395WAT      O25586   2.641   4.384   1.265 -0.0833 -0.3810 -0.3776
 8395WAT     H125587   2.632   4.400   1.358 -1.6159  1.1132 -0.7278
 8395WAT     H225588   2.557   4.412   1.228  0.6676 -0.4639 -2.2593
 8396WAT      O25589   6.525   3.122   1.923 -0.4296  0.0400 -0.4255
 8396WAT     H125590   6.486   3.171   1.850 -1.6771 -0.8138 -0.3689
 8396WAT     H225591   6.452   3.108   1.983  0.6627  1.0684  1.2131
 8397WAT      O25592   6.175   6.858   5.375 -0.1769  0.0804  0.0141
 8397WAT     H125593   6.127   6.789   5.420 -0.0069  1.1589  1.9208
 8397WAT     H225594   6.258   6.864   5.422  0.4999  0.4712 -1.1782
 8398WAT      O25595   4.371   3.128   4.443  0.3366 -0.0181  0.3993
 8398WAT     H125596   4.326   3.193   4.389 -0.6587 -1.4088 -0.5127
 8398WAT     H225597   4.463   3.155   4.442  0.4507 -0.2643 -2.4351
 8399WAT      O25598   5.482   3.476   0.336  0.3320 -0.8770 -0.4378
 8399WAT     H125599   5.450   3.564   0.357  0.2959 -1.2522  1.2566
 8399WAT     H225600   5.454   3.423   0.411  0.3540 -2.3372 -1.4344
 8400WAT      O25601   6.522   6.195   4.767 -0.7791 -0.0158 -0.6419
 8400WAT     H125602   6.584   6.186   4.839  0.8901 -2.9887 -2.2081
 8400WAT     H225603   6.437   6.178   4.806  0.1236 -1.9253  0.6395
 8401WAT      O25604   3.629   3.627   4.799 -0.2460  0.2223  0.3047
 8401WAT     H125605   3.705   3.588   4.754  0.4307  1.5830  0.2193
 8401WAT     H225606   3.624   3.716   4.765 -1.6676  0.2751  0.6044
 8402WAT      O25607   3.520   5.417   1.745 -0.0522 -0.1585  0.7079
 8402WAT     H125608   3.538   5.323   1.738  0.2996  0.0190 -1.3230
 8402WAT     H225609   3.430   5.426   1.712  0.3781  0.3394 -0.3881
 8403WAT      O25610   0.752   6.771   0.324  0.0882  0.5079 -0.4177
 8403WAT     H125611   0.773   6.838   0.260  1.3680  1.4529  0.9189
 8403WAT     H225612   0.834   6.757   0.373 -0.6551 -0.6402  0.5788
 8404WAT      O25613   3.939   4.247   3.912  0.5842 -0.2254 -0.3656
 8404WAT     H125614   4.005   4.262   3.980 -0.0713 -0.3185  0.3011
 8404WAT     H225615   3.855   4.261   3.957  0.0851 -1.7877 -0.7576
 8405WAT      O25616   4.151   1.502   2.337 -0.4310 -0.3675  0.5833
 8405WAT     H125617   4.075   1.550   2.370 -0.8637 -0.6991  0.0935
 8405WAT     H225618   4.222   1.523   2.398 -0.4518  1.3371  0.0605
 8406WAT      O25619   1.992   6.113   2.220 -0.1830 -0.3291 -0.0314
 8406WAT     H125620   1.907   6.157   2.213 -0.9993 -1.6139  1.4531
 8406WAT     H225621   1.977   6.026   2.182 -0.1752 -1.3626  2.2248
 8407WAT      O25622   7.088   1.488   4.987 -0.2417  0.8727  0.1735
 8407WAT     H125623   7.037   1.559   5.026 -2.8316 -0.9945  0.4483
 8407WAT     H225624   7.112   1.432   5.061 -1.7733 -0.6314 -0.4164
 8408WAT      O25625   5.006   2.431   3.774  0.0901 -0.9648 -0.2939
 8408WAT     H125626   5.028   2.361   3.712  0.0680 -0.8662 -0.4124
 8408WAT     H225627   5.006   2.387   3.860 -2.4087 -1.7293 -0.5886
 8409WAT      O25628   2.024   1.929   5.180 -0.3368 -0.6266  0.2166
 8409WAT     H125629   1.943   1.898   5.138  0.2147 -0.8480 -0.7131
 8409WAT     H225630   2.094   1.885   5.131  0.5582  2.4250 -1.5424
 8410WAT      O25631   7.181   7.066   1.414 -0.1171  0.0257  0.4921
 8410WAT     H125632   7.265   7.097   1.447  1.0258 -1.8026 -0.5009
 8410WAT     H225633   7.156   6.996   1.475 -0.2008 -0.3866 -0.0099
 8411WAT      O25634   6.400   0.476   6.078 -0.2371 -0.3580  0.3839
 8411WAT     H125635   6.347   0.457   6.155 -0.0758 -0.0880  0.5620
 8411WAT     H225636   6.433   0.564   6.092 -1.5890  0.3692 -0.7843
 8412WAT      O25637   0.507   3.774   3.318  0.4417 -0.2188 -0.2950
 8412WAT     H125638   0.473   3.740   3.235  0.4575 -0.7081 -0.1078
 8412WAT     H225639   0.515   3.696   3.374 -1.9022  0.3809  1.0119
 8413WAT      O25640   6.144   1.347   3.474 -0.5325  0.7547 -0.1134
 8413WAT     H125641   6.230   1.379   3.447 -0.0621  0.8052  1.3678
 8413WAT     H225642   6.140   1.364   3.568 -1.5385 -0.6496  0.1353
 8414WAT      O25643   4.074   4.000   1.657 -0.1368  0.4177  0.0572
 8414WAT     H125644   4.000   4.019   1.600  0.6971  0.9633 -0.8730
 8414WAT     H225645   4.133   3.946   1.604  1.5144  2.4479 -0.3010
 8415WAT      O25646   3.196   4.375   2.729  0.0509  0.5145  0.5224
 8415WAT     H125647   3.250   4.319   2.784 -0.5020 -0.2426  0.3041
 8415WAT     H225648   3.199   4.334   2.642  0.7810  1.5975 -0.0003
 8416WAT      O25649   2.330   3.861   3.024 -0.4269  0.4177  0.4284
 8416WAT     H125650   2.239   3.887   3.030 -0.9583 -0.7903 -1.5817
 8416WAT     H225651   2.370   3.927   2.966  0.1970  1.3276  1.8172
 8417WAT      O25652   7.500   3.932   6.249 -0.0779 -0.0634 -0.3158
 8417WAT     H125653   7.409   3.901   6.244 -0.5130  0.8515  1.3187
 8417WAT     H225654   7.548   3.873   6.191 -1.1972 -2.5074  1.0840
 8418WAT      O25655   3.543   3.402   2.541 -0.6622  0.7357  0.0981
 8418WAT     H125656   3.528   3.496   2.538  0.1692  0.8600 -0.9619
 8418WAT     H225657   3.569   3.379   2.452  2.1736  0.0354  1.0029
 8419WAT      O25658   0.298   0.106   0.845 -0.1074 -0.1335  0.4924
 8419WAT     H125659   0.331   0.146   0.926  1.8809  1.3125 -0.9164
 8419WAT     H225660   0.207   0.134   0.839 -0.6100 -1.1323  2.6977
 8420WAT      O25661   7.301   1.847   5.642  0.4324 -0.2701 -0.3522
 8420WAT     H125662   7.346   1.830   5.559 -1.1045 -0.1660 -1.2433
 8420WAT     H225663   7.300   1.763   5.687 -0.8176 -0.9056 -1.5276
 8421WAT      O25664   0.740   4.893   1.116 -0.0383 -0.1472 -0.8496
 8421WAT     H125665   0.775   4.922   1.200  1.4491 -0.8787 -1.1856
 8421WAT     H225666   0.647   4.878   1.134  0.1933 -0.0719  0.6041
 8422WAT      O25667   5.136   0.909   0.049 -0.0965  0.0397 -0.6330
 8422WAT     H125668   5.161   0.938  -0.039 -0.8492  1.4039 -0.4335
 8422WAT     H225669   5.204   0.946   0.106 -0.2687  0.1860 -0.5216
 8423WAT      O25670   4.505   7.017   1.666  0.5118  0.0252  0.1564
 8423WAT     H125671   4.499   6.942   1.725  0.2933 -1.4506 -1.6441
 8423WAT     H225672   4.480   7.093   1.719 -0.7381 -1.3739  1.6392
 8424WAT      O25673   7.555   6.979   3.506  0.0779 -0.5339 -0.5317
 8424WAT     H125674   7.612   7.054   3.487  0.0150 -1.0431 -3.0635
 8424WAT     H225675   7.506   7.006   3.584  0.6776  1.7136 -0.8556
 8425WAT      O25676   4.845   4.368   0.437 -0.1874 -0.3386  0.2345
 8425WAT     H125677   4.890   4.283   0.443  1.2952  0.3717 -0.2093
 8425WAT     H225678   4.905   4.429   0.481  0.4276  1.0535 -2.3360
 8426WAT      O25679   4.583   5.084   5.445  0.2994  0.2115 -0.0514
 8426WAT     H125680   4.637   5.108   5.370  0.3657  0.6597  0.1401
 8426WAT     H225681   4.558   4.993   5.428 -1.4736  0.9507 -1.6979
 8427WAT      O25682   1.642   5.603   4.349  0.4707  0.0613 -0.1729
 8427WAT     H125683   1.731   5.630   4.329  0.1774  0.2215 -1.3476
 8427WAT     H225684   1.629   5.626   4.441  1.3004  0.9428 -0.2729
 8428WAT      O25685   6.901   1.342   4.883  0.5651 -0.2720 -0.1223
 8428WAT     H125686   6.973   1.396   4.916  0.4077 -0.6618  0.8893
 8428WAT     H225687   6.826   1.364   4.939 -0.2945  0.5686 -1.5320
 8429WAT      O25688   7.453   7.135   1.218  0.3229 -0.0156  0.2503
 8429WAT     H125689   7.486   7.053   1.256  0.2112  0.4246  1.3206
 8429WAT     H225690   7.426   7.187   1.293  0.2990  0.9746 -0.4310
 8430WAT      O25691   2.264   6.165   4.813  0.1162 -0.0925  0.1232
 8430WAT     H125692   2.343   6.218   4.819 -0.6708  1.1090  0.3687
 8430WAT     H225693   2.204   6.203   4.877 -1.2301  0.0860 -1.1653
 8431WAT      O25694   6.100   1.743   2.031  0.5276  0.4134  0.3002
 8431WAT     H125695   6.180   1.785   2.061  0.0785  1.2983  0.2811
 8431WAT     H225696   6.047   1.733   2.110  1.1726 -1.3792  0.5474
 8432WAT      O25697   4.761   3.147   5.753 -0.3261 -0.1298 -0.1875
 8432WAT     H125698   4.666   3.140   5.760 -0.4006  1.5710  1.6492
 8432WAT     H225699   4.792   3.058   5.740 -2.1290 -0.8053 -0.0403
 8433WAT      O25700   0.219   2.860   1.402 -0.5162 -0.1964 -0.3277
 8433WAT     H125701   0.170   2.928   1.448 -0.2968  0.7908 -1.5086
 8433WAT     H225702   0.169   2.780   1.418 -1.0556  0.3172  0.6725
 8434WAT      O25703   5.250   7.110   5.347 -0.1745 -0.1888  0.0770
 8434WAT     H125704   5.309   7.101   5.422 -1.4019 -1.2213  0.9594
 8434WAT     H225705   5.230   7.020   5.322 -1.5600  0.1315 -0.0391
 8435WAT      O25706   7.504   0.571   0.541 -0.1284  0.2709 -0.2223
 8435WAT     H125707   7.563   0.543   0.472  0.0518 -0.2858  0.1519
 8435WAT     H225708   7.426   0.517   0.531 -0.1030  0.1880  0.0047
 8436WAT      O25709   0.271   1.510   2.097 -0.7875 -0.5117  0.5944
 8436WAT     H125710   0.193   1.514   2.040 -0.2177 -0.6019 -0.2094
 8436WAT     H225711   0.331   1.573   2.059 -0.4322 -0.4970  1.1739
 8437WAT      O25712   2.578   6.072   2.014 -0.0282  0.0871 -0.6321
 8437WAT     H125713   2.525   6.128   1.958  1.4559 -0.1967 -2.4270
 8437WAT     H225714   2.576   5.986   1.971  3.5671  0.5615 -2.0989
 8438WAT      O25715   0.946   2.101   2.884 -0.6568 -0.5127 -0.8785
 8438WAT     H125716   0.937   2.196   2.896 -0.5434 -0.5477 -0.4803
 8438WAT     H225717   0.864   2.066   2.919 -0.1585 -0.6464  0.1949
 8439WAT      O25718   2.215   0.631   0.320 -0.1291 -0.4273 -0.4730
 8439WAT     H125719   2.139   0.623   0.264  0.0824 -0.0999 -0.8104
 8439WAT     H225720   2.180   0.630   0.409 -0.6552  0.8889 -0.6392
 8440WAT      O25721   2.506   3.009   5.598  0.3123 -0.0816 -0.0360
 8440WAT     H125722   2.481   3.085   5.651 -0.7213 -0.3175 -0.1702
 8440WAT     H225723   2.462   3.022   5.514  1.4735 -0.0031 -0.6515
 8441WAT      O25724   4.786   4.832   1.493 -0.3461 -0.2078 -0.2955
 8441WAT     H125725   4.805   4.910   1.441  1.0131  0.0079  0.4851
 8441WAT     H225726   4.840   4.763   1.453  0.4066 -0.1305  0.5469
 8442WAT      O25727   6.881   0.209   3.024  0.5931 -0.5615  0.0617
 8442WAT     H125728   6.884   0.149   3.099  0.0037 -1.0593 -0.3048
 8442WAT     H225729   6.796   0.193   2.984  0.0723  1.0888  0.4043
 8443WAT      O25730   4.446   6.515   4.619  0.2778  0.1454 -0.0454
 8443WAT     H125731   4.382   6.501   4.689  0.5824 -2.9894 -0.2429
 8443WAT     H225732   4.420   6.454   4.550  2.9656 -0.6421 -0.4733
 8444WAT      O25733   3.612   4.300   6.061 -0.2420 -0.6501  0.6876
 8444WAT     H125734   3.658   4.225   6.024  0.7885  0.6666 -0.8727
 8444WAT     H225735   3.679   4.369   6.066 -1.2872  0.3547  1.4823
 8445WAT      O25736   4.805   2.545   0.606 -0.1891  0.2406  0.1290
 8445WAT     H125737   4.744   2.573   0.674 -1.1680  1.7699 -1.2978
 8445WAT     H225738   4.880   2.510   0.654 -1.6793 -0.6253  1.9439
 8446WAT      O25739   5.770   5.836   5.725  0.6648  0.0865 -0.0013
 8446WAT     H125740   5.715   5.767   5.686 -0.3712 -1.0054  3.0284
 8446WAT     H225741   5.800   5.888   5.651 -1.6090 -1.3886 -2.1309
 8447WAT      O25742   6.013   5.432   1.120  0.0345  0.5987  0.7494
 8447WAT     H125743   6.022   5.431   1.024  0.1160 -0.5351  0.7533
 8447WAT     H225744   5.967   5.514   1.139  0.0125  0.8368 -0.2594
 8448WAT      O25745   2.263   0.331   0.954  0.1994 -0.1576  0.0383
 8448WAT     H125746   2.297   0.348   1.042 -0.1933 -2.2216  0.6410
 8448WAT     H225747   2.287   0.240   0.937 -1.1430 -0.2755 -1.3340
 8449WAT      O25748   5.430   3.733   6.211  0.2835  0.1513  0.0873
 8449WAT     H125749   5.435   3.699   6.300  0.5677 -2.8396 -0.9518
 8449WAT     H225750   5.337   3.754   6.198 -0.0652 -1.0218  0.5742
 8450WAT      O25751   7.497   0.968   1.785 -0.2057  0.8337 -0.5972
 8450WAT     H125752   7.557   1.015   1.727  0.6324  2.1683  1.2383
 8450WAT     H225753   7.544   0.889   1.811  0.1253  1.1060 -0.3725
 8451WAT      O25754   4.358   0.195   0.904  0.0282 -0.6447 -0.3933
 8451WAT     H125755   4.318   0.281   0.919 -0.8746 -1.4866  2.7946
 8451WAT     H225756   4.452   0.210   0.915  0.0220  0.1761 -1.3555
 8452WAT      O25757   3.516   4.311   1.035 -0.3548 -0.1187  0.2181
 8452WAT     H125758   3.558   4.339   1.117  0.1702  0.1415 -0.1353
 8452WAT     H225759   3.497   4.218   1.049  0.7420 -0.3631  0.2343
 8453WAT      O25760   1.769   6.264   0.752  0.2558 -0.1171  0.3100
 8453WAT     H125761   1.812   6.196   0.804  0.6494  0.8180  1.2227
 8453WAT     H225762   1.833   6.334   0.746 -0.4107  0.4767 -0.0183
 8454WAT      O25763   5.050   2.177   1.572  0.4952 -0.0972  0.7016
 8454WAT     H125764   4.959   2.188   1.601 -0.2528 -2.4072 -0.4357
 8454WAT     H225765   5.101   2.178   1.653 -0.1199  3.7344  1.2194
 8455WAT      O25766   5.343   2.727   5.682  0.3041 -0.2820  0.7363
 8455WAT     H125767   5.314   2.689   5.599 -1.8351 -0.7721  1.6518
 8455WAT     H225768   5.276   2.791   5.704  1.8517  1.2576  1.1656
 8456WAT      O25769   1.263   4.392   5.261  0.1339  0.2758 -0.8746
 8456WAT     H125770   1.191   4.398   5.324 -0.6227  3.1520 -1.8496
 8456WAT     H225771   1.251   4.307   5.219 -1.1231 -0.4192  0.7732
 8457WAT      O25772   0.413   6.287   3.731 -0.0686 -0.1070 -0.8161
 8457WAT     H125773   0.407   6.270   3.637 -1.3008 -0.8686 -0.6213
 8457WAT     H225774   0.337   6.243   3.768 -0.3914  1.3710  0.3830
 8458WAT      O25775   6.510   4.107   3.029  0.1967  0.0072 -0.2448
 8458WAT     H125776   6.478   4.161   2.956 -0.6687  1.1801  0.9459
 8458WAT     H225777   6.572   4.047   2.989  0.0712  0.9053 -1.8802
 8459WAT      O25778   6.455   2.376   1.987  0.1658 -0.7474 -0.1627
 8459WAT     H125779   6.426   2.383   1.896  0.9627  1.3854 -0.2936
 8459WAT     H225780   6.374   2.382   2.038  0.0050  2.5138 -0.6206
 8460WAT      O25781   6.824   0.678   3.550  0.0293 -0.5988  0.6474
 8460WAT     H125782   6.901   0.638   3.509 -0.9226 -0.1802 -1.6923
 8460WAT     H225783   6.859   0.718   3.630  2.0337 -1.2988  0.2042
 8461WAT      O25784   5.075   4.845   1.188 -0.2551 -0.0177 -0.1906
 8461WAT     H125785   5.100   4.772   1.245  1.2131 -0.7925 -1.7150
 8461WAT     H225786   5.105   4.923   1.234 -0.0685 -0.5355  0.5918
 8462WAT      O25787   6.105   5.166   4.334  0.2056  0.5822 -0.0837
 8462WAT     H125788   6.180   5.151   4.275  0.1751 -0.0422  0.0245
 8462WAT     H225789   6.140   5.222   4.403  0.3733  0.9163 -0.4333
 8463WAT      O25790   7.635   5.716   3.188  0.2683 -0.3321 -0.0783
 8463WAT     H125791   7.642   5.621   3.196 -1.2060 -0.7039 -2.4414
 8463WAT     H225792   7.557   5.739   3.239  0.0161 -0.5229 -0.3819
 8464WAT      O25793   0.517   5.472   1.034 -0.0611 -0.1113 -0.3358
 8464WAT     H125794   0.431   5.447   1.067  0.6511 -0.7934  1.1078
 8464WAT     H225795   0.552   5.531   1.101  1.1961 -1.0683 -0.1017
 8465WAT      O25796   2.283   6.127   3.275  0.1153 -0.3728  0.0105
 8465WAT     H125797   2.333   6.077   3.339  0.1179 -1.6456 -0.9393
 8465WAT     H225798   2.227   6.062   3.232  0.7291  0.2505 -1.8453
 8466WAT      O25799   2.209   1.958   4.786  0.0102 -0.0694 -0.2935
 8466WAT     H125800   2.224   1.954   4.880 -2.3690 -0.6363  0.1421
 8466WAT     H225801   2.239   1.874   4.753  0.1865 -0.1490  0.0637
 8467WAT      O25802   6.283   1.381   1.697 -0.1853  0.0571  0.3313
 8467WAT     H125803   6.237   1.414   1.774 -2.6522  0.6823 -1.2807
 8467WAT     H225804   6.220   1.323   1.655  1.8797 -1.9519 -0.1452
 8468WAT      O25805   2.244   2.866   1.739  0.3605  0.2122  0.1394
 8468WAT     H125806   2.248   2.945   1.685  0.5797 -0.4275 -0.8094
 8468WAT     H225807   2.330   2.863   1.782  0.6976  0.0258 -0.5228
 8469WAT      O25808   4.058   0.926   2.509 -0.3074 -0.2026 -0.6346
 8469WAT     H125809   4.077   1.003   2.563  1.3237 -0.9842 -0.0374
 8469WAT     H225810   4.100   0.944   2.425  0.3674 -0.5735 -0.3812
 8470WAT      O25811   7.000   0.484   5.189  0.5675 -0.2315 -0.3107
 8470WAT     H125812   6.938   0.411   5.199 -1.0493  1.3525  2.3588
 8470WAT     H225813   6.993   0.509   5.097 -1.9084 -0.8618 -0.3551
 8471WAT      O25814   3.807   3.211   4.871 -0.1032 -0.1049 -0.0647
 8471WAT     H125815   3.747   3.272   4.828 -0.2934 -0.1136  0.1851
 8471WAT     H225816   3.784   3.215   4.964  0.3518 -0.0311  0.0501
 8472WAT      O25817   6.782   3.142   0.337  0.0994  1.0128 -0.0931
 8472WAT     H125818   6.872   3.109   0.336  0.5555  2.1924 -1.0043
 8472WAT     H225819   6.743   3.105   0.416  1.1100 -0.2302 -0.1512
 8473WAT      O25820   3.517   3.433   3.208  0.5381 -0.3025  0.2968
 8473WAT     H125821   3.537   3.342   3.231  0.6873 -0.8867 -1.9579
 8473WAT     H225822   3.429   3.429   3.170  0.2431  0.6457  0.8433
 8474WAT      O25823   6.594   1.674   0.292  0.1747 -0.5124  0.0336
 8474WAT     H125824   6.563   1.589   0.260 -0.6037 -0.5220  0.7696
 8474WAT     H225825   6.660   1.701   0.228 -0.5899 -1.0111 -0.9994
 8475WAT      O25826   5.034   3.054   2.833 -0.3456  0.4231  0.0218
 8475WAT     H125827   5.033   2.962   2.807 -0.3764  0.2565  0.5854
 8475WAT     H225828   5.114   3.089   2.794 -0.0806  0.0340  0.1998
 8476WAT      O25829   6.672   4.183   3.324 -0.4503  0.3288 -0.3204
 8476WAT     H125830   6.693   4.148   3.238  0.1936 -0.2931  0.0774
 8476WAT     H225831   6.581   4.156   3.340 -0.0914 -0.8682 -0.1848
 8477WAT      O25832   5.988   1.369   4.197 -0.2538  0.0764 -0.0417
 8477WAT     H125833   6.049   1.296   4.205  0.9000  1.1564  1.9898
 8477WAT     H225834   5.904   1.335   4.228  0.0737 -0.5919  0.1212
 8478WAT      O25835   2.371   1.512   2.675  0.5457 -0.2403 -0.1387
 8478WAT     H125836   2.394   1.421   2.656 -2.2334 -1.7106  2.4957
 8478WAT     H225837   2.416   1.531   2.758  1.2333  0.8984 -0.7457
 8479WAT      O25838   6.348   3.468   0.865 -0.1666 -0.5645  0.0386
 8479WAT     H125839   6.305   3.433   0.788  0.2512  1.4069 -1.1548
 8479WAT     H225840   6.277   3.499   0.921 -0.4764 -2.1199  0.5469
 8480WAT      O25841   3.574   4.006   2.189  0.0491 -0.0773  0.3990
 8480WAT     H125842   3.557   4.095   2.220  2.0445  0.3622  0.3886
 8480WAT     H225843   3.555   4.009   2.095 -0.4969  0.1506  0.5120
 8481WAT      O25844   1.405   0.076   5.711 -0.4793 -0.3194  0.1696
 8481WAT     H125845   1.395   0.086   5.806  0.2512  0.5292  0.1645
 8481WAT     H225846   1.341   0.136   5.673 -0.6664 -0.5477  0.1198
 8482WAT      O25847   7.425   6.172   1.454  0.2222  0.2769 -0.2557
 8482WAT     H125848   7.419   6.110   1.381  0.5148 -0.5329  0.3986
 8482WAT     H225849   7.495   6.233   1.427  1.2974 -0.8316 -0.0743
 8483WAT      O25850   0.974   5.135   4.988 -0.3553  0.2818 -0.1692
 8483WAT     H125851   0.975   5.059   5.047 -1.1965 -0.2879 -0.8480
 8483WAT     H225852   0.927   5.203   5.037 -1.0513 -0.1874 -0.1677
 8484WAT      O25853   7.620   5.278   0.274  0.1353  0.3409  0.2243
 8484WAT     H125854   7.610   5.301   0.182  0.0194 -0.4926  0.0250
 8484WAT     H225855   7.570   5.345   0.321 -0.1832  0.5057 -0.3411
 8485WAT      O25856   3.281   5.639   2.223  0.2809  0.1279 -0.6882
 8485WAT     H125857   3.307   5.555   2.261 -0.8186 -0.2964 -0.8641
 8485WAT     H225858   3.339   5.703   2.265  1.4541 -0.7628 -0.9011
 8486WAT      O25859   0.451   6.874   2.309 -0.7728  0.1473  0.6757
 8486WAT     H125860   0.519   6.811   2.329 -1.7287 -1.0858  0.2084
 8486WAT     H225861   0.460   6.942   2.375  0.7033 -0.1346  0.7907
 8487WAT      O25862   7.632   0.069   2.036 -0.0042 -0.0471 -0.7571
 8487WAT     H125863   7.691   0.045   1.964 -0.7881  0.8099 -1.7098
 8487WAT     H225864   7.690   0.108   2.102  0.5908  0.0842 -1.3537
 8488WAT      O25865   1.111   4.237   2.406  0.4660  0.0190  0.3805
 8488WAT     H125866   1.162   4.158   2.389  1.4952  0.3487  1.7294
 8488WAT     H225867   1.151   4.275   2.485 -1.0225  1.0291  0.6938
 8489WAT      O25868   2.897   5.509   0.181 -0.4286 -0.1933  0.5394
 8489WAT     H125869   2.830   5.440   0.181 -0.9486  0.2883  1.4357
 8489WAT     H225870   2.947   5.494   0.101 -1.5115 -0.6731 -0.0715
 8490WAT      O25871   0.102   3.948   2.151  0.0737  0.0993 -0.4733
 8490WAT     H125872   0.155   3.868   2.143 -0.7695 -0.5434  0.1244
 8490WAT     H225873   0.161   4.012   2.191 -0.0001 -1.0817  1.7074
 8491WAT      O25874   0.113   2.657   2.533 -0.0192 -0.3638  0.0160
 8491WAT     H125875   0.047   2.723   2.511 -0.1501 -0.3011  0.5933
 8491WAT     H225876   0.063   2.576   2.542 -0.2727 -0.0272  2.0393
 8492WAT      O25877   6.269   6.446   1.162 -0.4105  0.1929  0.0088
 8492WAT     H125878   6.360   6.421   1.148 -0.2010  1.2597 -0.6522
 8492WAT     H225879   6.273   6.515   1.229 -0.4670  1.8969 -1.6654
 8493WAT      O25880   7.267   1.276   4.668 -0.3896 -0.1017  0.5002
 8493WAT     H125881   7.330   1.233   4.610  0.2728  0.4905  0.7493
 8493WAT     H225882   7.316   1.290   4.749 -1.0742 -0.2650  0.9471
 8494WAT      O25883   2.181   6.659   5.914  0.1792  0.2089  0.2101
 8494WAT     H125884   2.092   6.677   5.946  0.1324  2.0180 -0.7775
 8494WAT     H225885   2.238   6.694   5.982  0.1095  0.7213  0.0092
 8495WAT      O25886   4.360   1.164   3.925 -0.3251 -0.3506 -0.5480
 8495WAT     H125887   4.373   1.254   3.895 -0.1436 -0.6617 -1.4302
 8495WAT     H225888   4.267   1.160   3.949 -0.0081  0.4834  0.9810
 8496WAT      O25889   2.713   3.655   0.428  0.0303 -0.0767  0.2457
 8496WAT     H125890   2.717   3.751   0.437 -1.0816  0.0345 -0.2517
 8496WAT     H225891   2.751   3.622   0.509  3.9077  0.7130 -1.0282
 8497WAT      O25892   2.355   0.514   3.999  0.2974 -0.1547  0.3528
 8497WAT     H125893   2.325   0.570   4.070 -1.4464 -1.8299  1.0318
 8497WAT     H225894   2.278   0.461   3.976  1.4779 -1.3222 -1.1558
 8498WAT      O25895   4.820   2.864   5.794  0.0023  0.7925 -0.2588
 8498WAT     H125896   4.784   2.814   5.867  0.6937  1.1614  0.3516
 8498WAT     H225897   4.903   2.820   5.774 -0.0597  0.8502 -0.6621
 8499WAT      O25898   1.517   1.520   4.276  0.0824  0.0930 -0.4523
 8499WAT     H125899   1.459   1.555   4.344 -0.3637 -0.5676 -0.4742
 8499WAT     H225900   1.592   1.579   4.274  0.3832 -0.2091  1.0298
 8500WAT      O25901   3.657   2.244   3.992  0.1615  0.7243  0.0623
 8500WAT     H125902   3.722   2.294   3.942  0.0879  1.3286  0.5585
 8500WAT     H225903   3.621   2.307   4.054  0.3893 -0.0666  1.0131
 8501WAT      O25904   2.127   3.529   5.466  0.4073 -0.7423  0.6587
 8501WAT     H125905   2.172   3.482   5.536  2.6380  0.8541  0.4506
 8501WAT     H225906   2.199   3.565   5.413 -1.1600  1.2409 -0.2381
 8502WAT      O25907   5.680   4.849   0.582  0.0013 -0.4196 -0.3510
 8502WAT     H125908   5.689   4.804   0.666 -1.3311  0.9349  0.5659
 8502WAT     H225909   5.729   4.931   0.594  0.4103 -0.5412 -1.1570
 8503WAT      O25910   7.484   3.279   5.464 -0.3321  0.8797  0.4990
 8503WAT     H125911   7.447   3.207   5.516 -0.5210  0.8335  0.3005
 8503WAT     H225912   7.565   3.302   5.510 -0.7163  1.1275  1.0630
 8504WAT      O25913   0.740   5.414   1.629  0.4674 -0.1693 -0.4723
 8504WAT     H125914   0.768   5.441   1.716 -2.9789  3.7446 -0.2535
 8504WAT     H225915   0.708   5.325   1.640  0.9595 -0.1013  2.0232
 8505WAT      O25916   6.709   2.207   1.625 -0.2744 -0.5223 -0.3163
 8505WAT     H125917   6.708   2.289   1.575  0.3252 -0.9902 -1.1208
 8505WAT     H225918   6.743   2.232   1.711 -0.6454  0.1731 -0.3652
 8506WAT      O25919   6.684   2.391   3.220 -0.0848 -0.1075  0.1497
 8506WAT     H125920   6.711   2.481   3.200  1.3043 -0.8319 -1.5306
 8506WAT     H225921   6.723   2.373   3.305  1.6522  0.1517 -0.5406
 8507WAT      O25922   1.435   2.608   0.913  0.0907  0.4381  0.2063
 8507WAT     H125923   1.365   2.546   0.892 -0.7643  1.5071 -0.1762
 8507WAT     H225924   1.501   2.594   0.845 -0.5243  0.6045 -0.4283
 8508WAT      O25925   5.574   3.027   1.701  0.2680 -0.1711 -0.1571
 8508WAT     H125926   5.598   3.057   1.613  0.3594 -0.4672 -0.2361
 8508WAT     H225927   5.547   2.936   1.688 -0.0519 -0.1096  0.0697
 8509WAT      O25928   0.535   4.475   1.435  0.5208  0.1315 -0.2064
 8509WAT     H125929   0.580   4.468   1.519 -0.5274  1.2319  0.4759
 8509WAT     H225930   0.590   4.533   1.383  2.0052 -1.7856 -0.9085
 8510WAT      O25931   5.951   6.307   5.335  0.2282 -0.1456  0.4921
 8510WAT     H125932   5.911   6.253   5.403 -0.2271 -0.2511  0.1480
 8510WAT     H225933   6.035   6.334   5.372 -0.7551  1.2496  1.8144
 8511WAT      O25934   6.826   4.814   6.181 -0.0902  0.2021 -0.0195
 8511WAT     H125935   6.907   4.770   6.155 -0.4065 -0.1677 -0.3795
 8511WAT     H225936   6.830   4.818   6.277  1.3425  2.0507 -0.0981
 8512WAT      O25937   6.177   2.258   3.783 -0.5055  0.5052 -0.4229
 8512WAT     H125938   6.196   2.349   3.803  0.6636  0.2586 -0.3530
 8512WAT     H225939   6.160   2.217   3.868 -0.9717  0.6351 -0.4496
 8513WAT      O25940   3.613   2.253   6.012 -0.2110 -0.2165  0.0132
 8513WAT     H125941   3.579   2.217   6.094  0.1602 -2.1243 -0.6056
 8513WAT     H225942   3.708   2.241   6.019  0.0895  1.9679  0.3254
 8514WAT      O25943   3.971   4.625   2.644  0.0348 -0.0369  0.3299
 8514WAT     H125944   3.908   4.664   2.704 -1.4849  0.2110 -1.3284
 8514WAT     H225945   3.958   4.530   2.654 -1.3792  0.0129 -0.6996
 8515WAT      O25946   3.841   6.883   5.260  0.0421 -0.3399 -0.3175
 8515WAT     H125947   3.783   6.822   5.306  1.1032 -0.1496  1.3631
 8515WAT     H225948   3.927   6.842   5.266  0.7243  1.1586  0.6162
 8516WAT      O25949   0.367   2.136   1.277  0.2157  0.1698  0.0061
 8516WAT     H125950   0.425   2.091   1.339  0.6688  0.0067 -0.5258
 8516WAT     H225951   0.283   2.091   1.285 -0.4510  1.6379  2.2109
 8517WAT      O25952   3.534   6.959   3.324  0.5232 -0.1733 -0.1328
 8517WAT     H125953   3.472   6.943   3.395  1.5747  0.1392  0.8767
 8517WAT     H225954   3.485   7.014   3.262 -0.7949 -1.4419 -0.2766
 8518WAT      O25955   1.309   2.602   0.410 -0.1578 -0.1882 -0.0398
 8518WAT     H125956   1.247   2.674   0.414 -1.7050 -1.5427  1.3667
 8518WAT     H225957   1.257   2.526   0.385  1.2460 -1.0561 -0.4654
 8519WAT      O25958   0.439   1.031   0.853  0.3992  0.7641  0.5406
 8519WAT     H125959   0.494   1.095   0.897  1.6821 -0.0538  0.1659
 8519WAT     H225960   0.500   0.973   0.808 -0.7859  0.0851 -0.2537
 8520WAT      O25961   6.787   1.743   5.673  0.3375 -0.1433 -0.0429
 8520WAT     H125962   6.859   1.804   5.661  0.6291 -0.6158 -0.7939
 8520WAT     H225963   6.813   1.665   5.624 -1.6579  0.4766 -2.2830
 8521WAT      O25964   4.067   0.190   4.314 -0.0505 -0.1025 -0.6355
 8521WAT     H125965   4.130   0.189   4.386  0.9302  0.1949 -1.4528
 8521WAT     H225966   4.078   0.104   4.272 -1.4090 -0.7160  0.2026
 8522WAT      O25967   6.765   4.272   2.666 -0.3165  0.4827 -0.5806
 8522WAT     H125968   6.815   4.191   2.666  1.2993  1.2928  2.8958
 8522WAT     H225969   6.751   4.292   2.573  2.4523 -1.8000 -1.6228
 8523WAT      O25970   0.863   1.248   0.296  0.3452  0.3824 -0.0456
 8523WAT     H125971   0.790   1.287   0.345 -0.7022  1.8492 -2.5810
 8523WAT     H225972   0.877   1.163   0.338 -2.7770  0.0804  0.6637
 8524WAT      O25973   5.039   5.900   3.505  0.6953 -0.2211  0.0790
 8524WAT     H125974   4.959   5.849   3.512  1.1135 -0.9512 -0.2498
 8524WAT     H225975   5.039   5.958   3.581  0.2952 -0.8485  0.5629
 8525WAT      O25976   6.268   3.626   0.540 -0.3343 -0.0879  0.1964
 8525WAT     H125977   6.305   3.545   0.575 -1.9602 -0.1711  1.8777
 8525WAT     H225978   6.173   3.612   0.540 -0.6407  1.6687  0.1326
 8526WAT      O25979   4.630   0.937   5.686 -0.1396 -0.3028 -0.3354
 8526WAT     H125980   4.545   0.931   5.642 -1.2725 -1.5222  1.8533
 8526WAT     H225981   4.622   1.015   5.741 -0.6627 -1.5098  1.3747
 8527WAT      O25982   2.332   3.944   2.594 -0.5279  0.3341  0.2873
 8527WAT     H125983   2.385   3.891   2.535 -0.1913  3.0108 -2.0170
 8527WAT     H225984   2.392   3.972   2.663 -0.0639 -0.2003  0.0992
 8528WAT      O25985   5.790   7.030   3.004 -0.0671  0.4316 -0.1843
 8528WAT     H125986   5.878   6.997   2.987  0.2540  1.6772 -1.1540
 8528WAT     H225987   5.804   7.106   3.062 -0.6480 -0.2096  0.8277
 8529WAT      O25988   5.557   2.823   3.715  0.3293  0.2742 -0.0949
 8529WAT     H125989   5.514   2.886   3.773  2.5013  2.4519 -0.7196
 8529WAT     H225990   5.636   2.797   3.762  0.3173 -0.6985 -0.5814
 8530WAT      O25991   5.865   2.504   1.628 -0.2788  0.0337  0.7159
 8530WAT     H125992   5.932   2.437   1.612  1.6297  1.6621  1.4064
 8530WAT     H225993   5.857   2.507   1.724 -1.0279  0.1654  0.6557
 8531WAT      O25994   6.172   3.310   4.598 -0.0364  0.0881  0.2086
 8531WAT     H125995   6.258   3.346   4.576 -0.3944 -0.2830 -2.0910
 8531WAT     H225996   6.183   3.272   4.685  1.3259  2.5509  1.2299
 8532WAT      O25997   1.396   1.434   2.136 -0.6676 -0.1523  0.1323
 8532WAT     H125998   1.451   1.426   2.058 -0.8315  0.5733 -0.0668
 8532WAT     H225999   1.446   1.391   2.205  0.6555  1.3659  0.1880
 8533WAT      O26000   0.378   4.824   0.956 -0.2075  0.1670  0.1283
 8533WAT     H126001   0.455   4.787   0.912  0.4353 -0.4659  1.7313
 8533WAT     H226002   0.320   4.749   0.968 -0.1364  0.2265  0.8546
 8534WAT      O26003   5.704   3.109   5.311 -0.6762 -0.1978 -0.4585
 8534WAT     H126004   5.674   3.193   5.276 -1.0105  0.0065  0.2913
 8534WAT     H226005   5.765   3.132   5.381  0.0108 -0.5990 -0.9120
 8535WAT      O26006   2.046   1.699   4.472 -0.3987  0.1904 -0.2773
 8535WAT     H126007   2.027   1.736   4.558 -0.1884  0.6579 -0.4262
 8535WAT     H226008   1.980   1.631   4.459  0.1763 -0.5850  0.6835
 8536WAT      O26009   1.233   1.139   3.491 -0.4264 -0.1246 -0.0744
 8536WAT     H126010   1.174   1.142   3.566  0.7814 -1.6392  0.9726
 8536WAT     H226011   1.278   1.224   3.493 -0.4714 -0.1130  0.8704
 8537WAT      O26012   5.578   0.104   2.230 -0.0067 -0.5456  0.2171
 8537WAT     H126013   5.652   0.044   2.230 -0.3710 -0.9993  0.2212
 8537WAT     H226014   5.502   0.048   2.214 -0.3879 -0.1332  0.5742
 8538WAT      O26015   3.624   0.963   3.789  0.3445  0.3371 -0.5190
 8538WAT     H126016   3.707   0.922   3.815  0.3231  1.3504  1.2607
 8538WAT     H226017   3.570   0.890   3.759  1.7752 -0.3726 -1.5016
 8539WAT      O26018   3.049   5.596   4.363  0.0843  0.2393 -0.2546
 8539WAT     H126019   3.110   5.532   4.326 -0.1491 -0.0753 -0.1022
 8539WAT     H226020   3.100   5.643   4.429 -0.0824 -0.6630  0.5455
 8540WAT      O26021   4.408   4.469   0.164  0.3889  0.1446  0.0874
 8540WAT     H126022   4.500   4.447   0.149  0.4412  0.5922 -0.2861
 8540WAT     H226023   4.409   4.564   0.181  0.0523  0.0642  0.5621
 8541WAT      O26024   5.758   1.023   5.212  0.0273  0.0770 -0.0543
 8541WAT     H126025   5.817   1.063   5.276  0.7739 -0.7100 -0.2392
 8541WAT     H226026   5.736   0.938   5.250 -1.1028  0.4119  0.0703
 8542WAT      O26027   2.151   5.990   0.699 -0.2224 -0.1411 -0.2937
 8542WAT     H126028   2.137   6.040   0.779 -0.8774 -0.5247 -0.1573
 8542WAT     H226029   2.223   5.930   0.720 -0.9278 -0.8066  0.2874
 8543WAT      O26030   2.264   1.929   6.233 -0.1184  0.4026 -0.1426
 8543WAT     H126031   2.229   1.885   6.310  0.2254 -1.1424 -0.8231
 8543WAT     H226032   2.213   2.010   6.226 -1.1340 -0.1211  0.8812
 8544WAT      O26033   3.721   6.573   1.941 -0.4494  0.3661  0.0125
 8544WAT     H126034   3.658   6.501   1.931 -0.6028  0.5888 -0.6954
 8544WAT     H226035   3.780   6.564   1.866  0.2931  0.2348  0.6030
 8545WAT      O26036   2.849   5.595   0.440 -0.4440 -0.5655  0.1824
 8545WAT     H126037   2.871   5.543   0.363  0.0914 -0.2558  0.1170
 8545WAT     H226038   2.878   5.542   0.515  0.4152 -0.2177  0.1009
 8546WAT      O26039   4.468   3.913   1.538  0.3435  0.2277 -0.0229
 8546WAT     H126040   4.473   3.982   1.605 -0.2982  0.0004  0.2592
 8546WAT     H226041   4.393   3.937   1.485 -0.2200 -0.5494  0.4085
 8547WAT      O26042   4.578   4.438   2.982 -0.5479  0.0229 -0.5638
 8547WAT     H126043   4.538   4.369   3.035  0.6182  1.1030  1.8844
 8547WAT     H226044   4.671   4.430   3.000 -0.2310  1.1275 -1.6323
 8548WAT      O26045   1.687   7.122   0.592 -0.3908  0.1025  0.4534
 8548WAT     H126046   1.769   7.159   0.559 -0.4335 -0.5093 -0.3426
 8548WAT     H226047   1.708   7.096   0.682  0.7014 -1.3289 -0.1806
 8549WAT      O26048   4.126   0.218   5.035  0.3013 -0.5498 -0.1483
 8549WAT     H126049   4.062   0.217   5.106 -0.9024 -1.3220 -1.2046
 8549WAT     H226050   4.210   0.235   5.078 -0.8839  3.3535  1.0316
 8550WAT      O26051   1.524   1.685   1.996  0.1313  0.2652 -0.3231
 8550WAT     H126052   1.531   1.610   2.056 -1.3024  0.5770  0.2784
 8550WAT     H226053   1.581   1.751   2.034 -0.3995  0.2902  0.4610
 8551WAT      O26054   5.361   2.270   0.347 -0.5754  0.0216 -0.4602
 8551WAT     H126055   5.441   2.274   0.294  0.7474  0.1034  1.4161
 8551WAT     H226056   5.355   2.179   0.374 -0.7082  0.1513 -0.0357
 8552WAT      O26057   2.046   1.227   1.222 -0.5313 -0.6421  0.3403
 8552WAT     H126058   2.051   1.236   1.127 -0.6475  1.1945  0.4676
 8552WAT     H226059   2.127   1.182   1.247  0.1888  0.1391 -0.5107
 8553WAT      O26060   0.793   4.608   2.317  0.0708 -0.5312  0.3172
 8553WAT     H126061   0.802   4.558   2.398 -0.0853 -0.6685  0.2514
 8553WAT     H226062   0.799   4.700   2.344  0.7663 -0.5915  0.3873
 8554WAT      O26063   1.414   4.990   4.721 -0.1444  0.0308  0.2956
 8554WAT     H126064   1.479   4.941   4.771 -0.7901  0.3826  1.5214
 8554WAT     H226065   1.388   5.061   4.779  0.2646  1.4467 -1.1732
 8555WAT      O26066   6.618   3.321   4.636 -0.1432  0.1269  0.3103
 8555WAT     H126067   6.616   3.245   4.693  1.9973  0.2437  0.6141
 8555WAT     H226068   6.663   3.388   4.687 -0.2267  0.9656 -0.6838
 8556WAT      O26069   3.669   4.756   4.865  0.3582 -0.2917 -0.4228
 8556WAT     H126070   3.594   4.699   4.881  0.1331  0.1458  0.0882
 8556WAT     H226071   3.675   4.811   4.943  1.9213 -1.0906  0.0671
 8557WAT      O26072   1.975   5.234   0.740 -0.3317 -0.0714 -0.0371
 8557WAT     H126073   1.975   5.160   0.680  0.9492  0.3729 -0.6214
 8557WAT     H226074   2.068   5.257   0.750 -0.6860  1.2946  0.3076
 8558WAT      O26075   4.810   2.779   4.993  0.0788 -0.0394 -0.8308
 8558WAT     H126076   4.793   2.872   4.979 -0.3094 -0.0869 -0.6649
 8558WAT     H226077   4.897   2.777   5.034  0.0120  0.2627 -0.6689
 8559WAT      O26078   4.567   0.216   3.937  0.1553  0.1023 -0.0762
 8559WAT     H126079   4.505   0.144   3.932  0.0891  0.1877 -0.5629
 8559WAT     H226080   4.592   0.221   4.030 -0.7793  0.2548  0.1706
 8560WAT      O26081   3.730   2.309   2.928  0.2695  0.1502 -0.4714
 8560WAT     H126082   3.780   2.265   2.860 -0.7964 -0.4402 -0.8976
 8560WAT     H226083   3.713   2.241   2.993  1.2382  0.6964  0.3766
 8561WAT      O26084   2.279   1.922   3.147 -0.4945 -0.5737  0.6051
 8561WAT     H126085   2.372   1.927   3.165 -0.4097  1.7104 -0.1499
 8561WAT     H226086   2.237   1.943   3.230 -0.2610  0.5127  0.4710
 8562WAT      O26087   4.360   5.367   2.945  0.3868 -0.7090 -0.2122
 8562WAT     H126088   4.385   5.288   2.994  0.7622 -0.9142 -0.7217
 8562WAT     H226089   4.266   5.358   2.931 -0.3858  0.7921  3.0336
 8563WAT      O26090   2.346   5.941   2.928  0.1053  0.2764  0.2505
 8563WAT     H126091   2.409   5.873   2.949  0.7521  0.6303 -0.4804
 8563WAT     H226092   2.390   6.023   2.951  0.1344  0.5574 -0.7352
 8564WAT      O26093   4.850   5.555   5.134 -0.5652 -0.3405  0.0043
 8564WAT     H126094   4.795   5.567   5.212  1.4154 -1.2551  1.6511
 8564WAT     H226095   4.900   5.636   5.128 -0.9586 -0.1333 -0.5491
 8565WAT      O26096   1.036   2.693   3.529  0.0198 -0.2106  0.4196
 8565WAT     H126097   1.066   2.769   3.578 -0.0461  0.0906 -0.0021
 8565WAT     H226098   1.113   2.636   3.522 -0.0071 -0.3235  0.9900
 8566WAT      O26099   7.644   6.096   0.815 -0.6165 -0.0173 -0.2988
 8566WAT     H126100   7.739   6.099   0.817 -0.6131 -0.4332  0.7935
 8566WAT     H226101   7.618   6.178   0.773  0.1830  0.8587  0.8594
 8567WAT      O26102   4.297   3.086   2.485  0.7966 -0.1794  0.1516
 8567WAT     H126103   4.391   3.087   2.501  0.6994 -0.8399  0.8332
 8567WAT     H226104   4.281   3.163   2.430  1.4313  1.1999  1.8019
 8568WAT      O26105   6.327   5.479   4.108  0.2773  0.2244  0.0399
 8568WAT     H126106   6.329   5.400   4.161 -0.9228 -0.6895 -1.2171
 8568WAT     H226107   6.278   5.542   4.161 -0.4055 -0.4883  0.2739
 8569WAT      O26108   6.202   6.685   5.067  0.3544  1.0034 -1.1479
 8569WAT     H126109   6.205   6.709   5.160 -1.5503  1.2312 -1.1024
 8569WAT     H226110   6.178   6.765   5.022  0.3741  0.6797 -1.7408
 8570WAT      O26111   0.189   3.892   4.714  0.3604  0.3709 -0.5991
 8570WAT     H126112   0.264   3.850   4.672  0.1073  0.6807 -1.3795
 8570WAT     H226113   0.113   3.859   4.666 -0.2578 -1.6406  1.5320
 8571WAT      O26114   0.216   1.643   1.793  0.0045 -0.2758 -0.0607
 8571WAT     H126115   0.302   1.629   1.831  0.8949 -2.9384 -2.7258
 8571WAT     H226116   0.156   1.595   1.851  0.3561  0.8841  1.3254
 8572WAT      O26117   7.449   2.177   0.356 -0.3188 -0.0282 -0.3304
 8572WAT     H126118   7.373   2.120   0.363  0.0254 -0.4349  0.2100
 8572WAT     H226119   7.524   2.120   0.375  0.1892  0.1974 -1.5654
 8573WAT      O26120   0.245   4.409   0.723  0.1333  0.0341  0.7057
 8573WAT     H126121   0.280   4.329   0.762  0.1763 -0.2694  0.0683
 8573WAT     H226122   0.243   4.390   0.629  1.6860  1.3867  0.3706
 8574WAT      O26123   6.458   0.869   3.996  0.4542 -0.6552 -0.9205
 8574WAT     H126124   6.423   0.780   4.004 -1.4465 -0.2070 -3.0404
 8574WAT     H226125   6.423   0.916   4.072  1.3066 -1.6376  0.1035
 8575WAT      O26126   1.030   3.259   5.449 -0.0271 -0.2497 -0.2895
 8575WAT     H126127   1.044   3.165   5.459  0.1686 -0.2989 -0.9734
 8575WAT     H226128   0.943   3.274   5.485 -0.6347 -0.9245 -1.4050
 8576WAT      O26129   4.713   4.726   0.194 -0.0455 -0.2179  0.0560
 8576WAT     H126130   4.717   4.636   0.227  1.8865 -0.1455  0.1292
 8576WAT     H226131   4.799   4.764   0.215 -1.2024  2.0437  1.0906
 8577WAT      O26132   5.038   4.703   2.480  0.1538  0.0957  0.4908
 8577WAT     H126133   5.106   4.686   2.546 -0.0944 -1.5450  0.3527
 8577WAT     H226134   4.956   4.685   2.525 -0.1126  0.5633  0.1992
 8578WAT      O26135   1.294   3.344   3.204 -0.7154  0.1154  0.0806
 8578WAT     H126136   1.363   3.410   3.214  0.1550 -0.8378  0.6259
 8578WAT     H226137   1.320   3.294   3.126 -1.0988  0.1171 -0.0466
 8579WAT      O26138   5.218   0.911   4.478  0.1671  0.0236 -0.0831
 8579WAT     H126139   5.314   0.916   4.479  0.2355 -0.5386  2.2817
 8579WAT     H226140   5.191   0.986   4.426  1.8677  1.2589  0.7045
 8580WAT      O26141   0.889   4.810   3.290 -0.1708 -0.3239 -0.5844
 8580WAT     H126142   0.942   4.732   3.273  1.7157  1.0526 -1.4381
 8580WAT     H226143   0.945   4.865   3.346 -1.6474  0.2527  0.4028
 8581WAT      O26144   4.195   3.406   2.783  0.3031 -0.0631 -0.2824
 8581WAT     H126145   4.255   3.334   2.763  0.1138  0.1306 -1.6190
 8581WAT     H226146   4.252   3.478   2.811  0.8278  0.4023 -2.3607
 8582WAT      O26147   4.263   0.112   1.205 -0.1054 -0.0631 -0.7761
 8582WAT     H126148   4.323   0.133   1.133  0.8626  0.3213  0.1175
 8582WAT     H226149   4.223   0.029   1.179  1.5203 -0.8311 -0.9851
 8583WAT      O26150   6.783   4.367   5.684  0.2487  0.1051 -0.1534
 8583WAT     H126151   6.737   4.290   5.716 -1.4603  1.0565 -0.2123
 8583WAT     H226152   6.726   4.403   5.616  1.8265  0.4727 -1.3471
 8584WAT      O26153   6.497   2.504   2.482 -0.0632  0.1869  0.0327
 8584WAT     H126154   6.524   2.595   2.468  0.2044  0.0005 -0.7262
 8584WAT     H226155   6.535   2.457   2.408 -1.7879 -0.2256 -0.6301
 8585WAT      O26156   6.211   6.962   0.198  0.3446 -0.0729  0.2264
 8585WAT     H126157   6.293   6.988   0.238  0.4646 -0.3316  0.1528
 8585WAT     H226158   6.210   7.007   0.113  2.9775 -4.0771 -2.3063
 8586WAT      O26159   6.381   5.253   1.752 -0.1993 -0.1738  0.3791
 8586WAT     H126160   6.455   5.208   1.712 -1.9532 -0.9168 -2.3189
 8586WAT     H226161   6.307   5.193   1.740 -1.6796  1.4167  1.0371
 8587WAT      O26162   0.942   5.694   1.026 -0.0807 -0.3402 -0.1902
 8587WAT     H126163   0.892   5.773   1.048  0.0657 -0.2572 -0.1521
 8587WAT     H226164   0.902   5.661   0.946  1.5561  1.2864 -1.7777
 8588WAT      O26165   6.909   6.076   6.144 -0.2148  0.6268  0.1317
 8588WAT     H126166   7.004   6.083   6.158 -0.3572  0.0210  1.6313
 8588WAT     H226167   6.871   6.114   6.223 -1.2179  0.5818 -0.3225
 8589WAT      O26168   4.913   1.093   3.794  0.4084 -0.2485 -0.1473
 8589WAT     H126169   4.861   1.126   3.867 -0.1764 -2.6309  0.5926
 8589WAT     H226170   4.851   1.041   3.742  0.9732  0.8307 -1.9947
 8590WAT      O26171   0.206   4.156   4.665  0.1656  0.3176  0.0215
 8590WAT     H126172   0.190   4.210   4.742 -1.2071  1.6628 -1.1245
 8590WAT     H226173   0.201   4.066   4.697 -2.0093  0.7959  1.2625
 8591WAT      O26174   0.938   0.626   0.076 -0.5153  0.0951  0.1025
 8591WAT     H126175   0.859   0.678   0.085  1.0310  2.1910  3.2863
 8591WAT     H226176   0.922   0.548   0.129 -1.7645 -1.5169 -2.4225
 8592WAT      O26177   1.676   3.690   5.181 -0.1596  0.3428 -0.0359
 8592WAT     H126178   1.678   3.730   5.268  2.7271 -0.3640  0.3256
 8592WAT     H226179   1.704   3.600   5.195  0.7584  0.3226 -1.7147
 8593WAT      O26180   2.432   1.934   4.175 -0.6383 -0.2006 -0.1294
 8593WAT     H126181   2.463   1.843   4.182 -1.6470 -0.5788 -0.4587
 8593WAT     H226182   2.442   1.955   4.082  2.9916  1.2958  0.4371
 8594WAT      O26183   3.063   6.450   5.742 -0.0214 -0.8331  0.1064
 8594WAT     H126184   3.051   6.385   5.811 -1.2163 -0.6811  0.0682
 8594WAT     H226185   3.118   6.518   5.782  0.7528 -1.5724  0.3287
 8595WAT      O26186   4.694   3.526   3.190  0.0787 -0.6322  0.1057
 8595WAT     H126187   4.715   3.561   3.276 -1.9284  2.1148 -0.3867
 8595WAT     H226188   4.767   3.467   3.169  0.9764 -0.8247  3.2991
 8596WAT      O26189   4.633   0.490   0.336  0.1544 -0.4442 -0.2155
 8596WAT     H126190   4.596   0.487   0.424  0.1097  0.8148 -0.1723
 8596WAT     H226191   4.583   0.558   0.291  0.9464 -0.2631 -0.8502
 8597WAT      O26192   6.700   2.329   3.486 -0.1141 -0.1221 -0.2859
 8597WAT     H126193   6.702   2.399   3.551  1.5485  0.3744 -0.8332
 8597WAT     H226194   6.725   2.250   3.535 -1.4445 -0.2700  0.2083
 8598WAT      O26195   1.149   0.486   2.985 -0.0302  0.3331 -0.1135
 8598WAT     H126196   1.239   0.467   3.010 -0.4094  0.7955  1.7625
 8598WAT     H226197   1.118   0.548   3.051 -2.1521 -0.8467  0.0865
 8599WAT      O26198   7.628   1.214   4.701 -0.0148  0.2827 -0.1313
 8599WAT     H126199   7.707   1.160   4.706 -0.9937 -1.1239  0.9933
 8599WAT     H226200   7.637   1.277   4.772  0.2136  0.2783 -0.1572
 8600WAT      O26201   3.652   7.203   5.426  0.3683 -0.5250 -0.0165
 8600WAT     H126202   3.611   7.121   5.401 -0.0042 -0.2506 -0.3113
 8600WAT     H226203   3.581   7.268   5.422  1.2543  0.4027 -2.6940
 8601WAT      O26204   2.775   0.827   4.253  0.0162 -0.6129  0.2674
 8601WAT     H126205   2.790   0.816   4.347 -1.5444  0.6575  0.7128
 8601WAT     H226206   2.758   0.920   4.243 -0.7744 -0.8904 -1.1270
 8602WAT      O26207   1.145   2.670   2.902 -0.3040  0.2114  0.1712
 8602WAT     H126208   1.157   2.764   2.915 -0.3085  0.2744 -0.2707
 8602WAT     H226209   1.153   2.633   2.990 -0.0508  0.5947  0.3142
 8603WAT      O26210   4.288   6.524   2.760 -0.6406 -0.1645 -0.4910
 8603WAT     H126211   4.286   6.531   2.856  1.9902  1.2622 -0.4199
 8603WAT     H226212   4.291   6.430   2.743  2.6364 -0.5121  1.1391
 8604WAT      O26213   7.497   2.509   0.396  0.6643  0.3023  0.9823
 8604WAT     H126214   7.537   2.480   0.478  0.4888  2.3235  1.8348
 8604WAT     H226215   7.403   2.506   0.413  0.6451  1.3558  1.0981
 8605WAT      O26216   2.043   2.879   2.889  0.1037  0.2875  0.3495
 8605WAT     H126217   2.088   2.960   2.912 -0.4462  1.1370 -1.4316
 8605WAT     H226218   1.953   2.892   2.921  0.3798 -0.2573  1.3916
 8606WAT      O26219   6.827   1.881   4.974 -0.0383 -0.1336  0.2181
 8606WAT     H126220   6.846   1.817   5.043  1.3543 -1.3492 -1.2094
 8606WAT     H226221   6.907   1.932   4.967  0.2659 -0.7587 -1.2153
 8607WAT      O26222   3.550   1.024   2.604  0.0000  0.8693  0.3155
 8607WAT     H126223   3.642   1.016   2.628  0.2962  1.1028 -0.6919
 8607WAT     H226224   3.520   1.101   2.651  0.5613  1.3073 -0.0259
 8608WAT      O26225   6.783   4.656   3.758 -0.3979 -0.0579  0.3546
 8608WAT     H126226   6.783   4.722   3.827  1.3956 -1.6955  2.0909
 8608WAT     H226227   6.876   4.645   3.736 -0.7118 -1.4180 -0.4268
 8609WAT      O26228   0.951   2.321   4.823  0.1589  0.5074  0.7245
 8609WAT     H126229   0.932   2.259   4.753  1.0027  0.4126  0.5595
 8609WAT     H226230   0.872   2.374   4.832 -0.0887  0.2739 -0.0492
 8610WAT      O26231   2.829   0.360   6.040  0.1557  0.5037  0.0088
 8610WAT     H126232   2.904   0.327   5.990 -0.3294  0.0536 -0.4442
 8610WAT     H226233   2.867   0.397   6.120  0.7502 -1.1833  0.5517
 8611WAT      O26234   7.348   5.428   1.737 -0.7678  0.2776  0.4058
 8611WAT     H126235   7.286   5.420   1.809  0.6108  0.5431  1.6896
 8611WAT     H226236   7.371   5.521   1.735 -0.7645  0.2685 -0.3705
 8612WAT      O26237   2.851   5.717   1.230  0.1014 -0.1549 -0.0760
 8612WAT     H126238   2.779   5.655   1.241  0.0631 -0.0203  0.4682
 8612WAT     H226239   2.915   5.670   1.177 -0.7688  0.0416 -1.3636
 8613WAT      O26240   2.744   1.507   1.911  0.2426 -0.1821 -0.4247
 8613WAT     H126241   2.666   1.540   1.956 -0.2365 -1.3919 -0.3232
 8613WAT     H226242   2.781   1.584   1.868 -0.0636  0.7333  0.8885
 8614WAT      O26243   6.718   5.123   4.247 -0.6400 -0.5088 -0.6256
 8614WAT     H126244   6.637   5.115   4.298 -0.4134  0.2992 -0.1163
 8614WAT     H226245   6.779   5.064   4.290 -0.9388 -1.0792 -0.9766
 8615WAT      O26246   7.203   2.827   0.181 -0.0968 -0.2374 -0.9197
 8615WAT     H126247   7.268   2.822   0.250  1.5670  2.2768 -2.1361
 8615WAT     H226248   7.216   2.748   0.129 -0.5599 -1.5575  0.8731
 8616WAT      O26249   3.576   1.579   2.912  0.1620  0.4706 -0.1341
 8616WAT     H126250   3.544   1.669   2.901  0.3201  0.4449 -0.8915
 8616WAT     H226251   3.585   1.546   2.822  1.0779  0.0425  0.1003
 8617WAT      O26252   0.009   0.030   3.939  0.0935  0.3907  0.4459
 8617WAT     H126253   0.006   0.012   4.033  1.2939  1.4741  0.7286
 8617WAT     H226254  -0.053  -0.032   3.900 -0.7919  0.2431  1.9953
 8618WAT      O26255   1.301   6.855   2.599  0.4396 -0.2345  0.0318
 8618WAT     H126256   1.278   6.770   2.563 -2.3134 -0.2340  1.5122
 8618WAT     H226257   1.381   6.839   2.649  2.5100 -0.8855 -3.2020
 8619WAT      O26258   6.572   5.892   0.294  0.4716 -0.0636  0.1095
 8619WAT     H126259   6.536   5.820   0.242 -1.0880 -1.5095  2.9422
 8619WAT     H226260   6.504   5.910   0.359  1.4480  3.0317  0.4423
 8620WAT      O26261   5.539   4.493   5.810  0.3371  0.0128 -0.4795
 8620WAT     H126262   5.516   4.586   5.815 -0.1468 -0.1463  0.4798
 8620WAT     H226263   5.620   4.485   5.860 -0.1534 -0.2387  0.2886
 8621WAT      O26264   6.145   2.377   2.658 -0.3830  0.2638 -0.2928
 8621WAT     H126265   6.145   2.452   2.597  0.9123  1.5443  1.1818
 8621WAT     H226266   6.098   2.408   2.735  0.4696 -0.3118  0.4789
 8622WAT      O26267   2.872   1.221   2.723  0.0890  0.0527 -0.1097
 8622WAT     H126268   2.933   1.174   2.780 -0.0394  1.1309  0.9545
 8622WAT     H226269   2.885   1.182   2.637  1.6935 -0.2861  0.2503
 8623WAT      O26270   3.229   1.852   4.253 -0.3583 -0.1411 -0.4519
 8623WAT     H126271   3.162   1.794   4.217 -1.1842 -0.3202  1.3014
 8623WAT     H226272   3.265   1.804   4.327 -0.6279  1.3121  0.6553
 8624WAT      O26273   3.891   4.186   5.383 -0.2976  0.2426  0.2838
 8624WAT     H126274   3.903   4.106   5.435 -0.3360  0.4881  0.6724
 8624WAT     H226275   3.850   4.248   5.443 -1.2555  0.2141 -0.3170
 8625WAT      O26276   7.185   2.548   0.842 -0.5143  0.1223 -0.8551
 8625WAT     H126277   7.226   2.578   0.923 -3.5380  2.9060 -0.1052
 8625WAT     H226278   7.232   2.594   0.772 -0.6360  1.2369 -0.2369
 8626WAT      O26279   5.810   1.004   4.414 -0.7841  0.1392 -0.1408
 8626WAT     H126280   5.806   0.981   4.507 -0.8040 -0.8088 -0.3701
 8626WAT     H226281   5.876   0.945   4.377 -1.3111 -0.0010 -0.8727
 8627WAT      O26282   6.315   1.511   3.831  0.1916 -0.3871 -0.2613
 8627WAT     H126283   6.259   1.509   3.754  1.2708 -0.0640 -1.0799
 8627WAT     H226284   6.280   1.582   3.885 -0.7322 -0.7924 -0.3162
 8628WAT      O26285   3.668   7.185   0.324  0.3859  0.0522 -0.5285
 8628WAT     H126286   3.699   7.223   0.406 -2.5473  0.7398  0.3688
 8628WAT     H226287   3.665   7.091   0.342 -1.0393  0.2609  0.5236
 8629WAT      O26288   2.499   5.513   5.890 -0.6691 -0.0996  0.6865
 8629WAT     H126289   2.499   5.584   5.954  0.3895  1.2510 -0.7450
 8629WAT     H226290   2.523   5.435   5.940  2.4944  1.3035  1.5922
 8630WAT      O26291   3.772   1.620   5.614 -0.5255 -0.4806  0.3154
 8630WAT     H126292   3.820   1.648   5.536 -1.3768 -0.3462 -0.1742
 8630WAT     H226293   3.839   1.614   5.682 -0.1203  1.6414  0.1767
 8631WAT      O26294   2.435   1.135   1.618 -0.0182  0.3853 -0.5203
 8631WAT     H126295   2.527   1.131   1.641 -0.5128  0.0884  1.6334
 8631WAT     H226296   2.389   1.122   1.701 -1.9984  1.8428 -1.3077
 8632WAT      O26297   7.087   3.669   4.338  0.7201  0.0015  0.0004
 8632WAT     H126298   7.016   3.701   4.283  1.9244  1.5323 -0.7071
 8632WAT     H226299   7.118   3.590   4.294 -0.0058 -0.2422 -0.0953
 8633WAT      O26300   4.419   1.278   0.015  0.1030 -0.0400 -0.4724
 8633WAT     H126301   4.342   1.292  -0.041  0.2746  0.1868 -0.6542
 8633WAT     H226302   4.398   1.326   0.096 -1.5080 -2.8677  0.9518
 8634WAT      O26303   3.371   2.751   1.534  0.0562 -0.0957  0.3609
 8634WAT     H126304   3.414   2.778   1.453  0.0259  0.2620  0.4623
 8634WAT     H226305   3.310   2.682   1.507 -0.0335  0.0983  0.0599
 8635WAT      O26306   6.211   0.632   4.072 -0.3015 -0.1237 -0.6095
 8635WAT     H126307   6.171   0.549   4.095 -1.6686  0.5981 -0.2646
 8635WAT     H226308   6.255   0.661   4.152 -0.8695  0.0573 -0.3596
 8636WAT      O26309   6.142   5.342   3.939  0.1162 -0.0125  1.1720
 8636WAT     H126310   6.218   5.399   3.952  1.2739 -1.2761  0.1452
 8636WAT     H226311   6.121   5.351   3.846  0.2696 -1.2183  1.0154
 8637WAT      O26312   0.789   4.619   0.261  0.0357 -0.2588  0.1308
 8637WAT     H126313   0.744   4.703   0.262  1.2244  0.3900  0.3926
 8637WAT     H226314   0.794   4.593   0.353  1.1711  0.2211  0.2168
 8638WAT      O26315   4.498   4.588   4.691 -0.0624  0.2972 -0.0627
 8638WAT     H126316   4.479   4.590   4.785 -0.0659  0.4186 -0.0650
 8638WAT     H226317   4.457   4.669   4.657  0.3860  0.5165 -0.0823
 8639WAT      O26318   6.625   1.718   3.805 -0.4005 -0.4649 -0.4738
 8639WAT     H126319   6.540   1.728   3.848 -0.2531 -0.3658 -0.2073
 8639WAT     H226320   6.663   1.640   3.845  0.0793  0.0810  0.1467
 8640WAT      O26321   2.923   4.728   2.746  0.3830 -0.0301 -0.2482
 8640WAT     H126322   2.883   4.649   2.711 -0.6658  1.1765 -1.9760
 8640WAT     H226323   3.008   4.733   2.702 -0.4404  0.8647 -1.8119
 8641WAT      O26324   0.641   3.197   0.964  0.5344  0.3570  0.0336
 8641WAT     H126325   0.594   3.132   0.912  0.8051 -0.2514  0.5280
 8641WAT     H226326   0.581   3.216   1.037  0.2477  1.0361 -0.3820
 8642WAT      O26327   0.451   5.345   0.572 -0.3260 -0.2118  0.0880
 8642WAT     H126328   0.546   5.351   0.585 -0.3299 -0.8456  0.4629
 8642WAT     H226329   0.413   5.384   0.650 -0.3850  0.4210 -0.2477
 8643WAT      O26330   5.662   6.613   4.167  0.4621 -0.1039  0.0401
 8643WAT     H126331   5.684   6.554   4.096 -1.0985 -0.4465 -0.1933
 8643WAT     H226332   5.681   6.563   4.247  1.4048 -0.0273 -0.1284
 8644WAT      O26333   2.529   4.619   2.494  0.0106  0.5146 -0.0462
 8644WAT     H126334   2.544   4.572   2.576  1.4825 -0.0345 -0.6019
 8644WAT     H226335   2.435   4.638   2.495 -0.0645  0.2301  1.6034
 8645WAT      O26336   1.679   6.241   0.436 -0.2215  0.3969 -0.6292
 8645WAT     H126337   1.767   6.255   0.471 -0.1253  0.8706 -1.0563
 8645WAT     H226338   1.627   6.213   0.512  0.0226  1.2569 -0.1320
 8646WAT      O26339   0.997   1.171   3.669  0.1615  0.3395  0.2161
 8646WAT     H126340   0.970   1.196   3.581 -2.2519 -0.4271  0.6697
 8646WAT     H226341   1.001   1.254   3.717 -2.0216  0.4843  0.2385
 8647WAT      O26342   2.021   0.698   4.258 -0.3627  0.2775 -0.3731
 8647WAT     H126343   1.983   0.717   4.344 -2.2728  1.3116 -1.3559
 8647WAT     H226344   2.033   0.785   4.218  2.9675  0.0029 -0.2563
 8648WAT      O26345   7.051   6.333   3.744  0.2405 -0.2356 -0.0913
 8648WAT     H126346   6.997   6.256   3.761 -0.7213  0.5002  0.3256
 8648WAT     H226347   7.090   6.354   3.829 -0.8558  0.7153  0.2001
 8649WAT      O26348   5.861   1.849   1.175 -0.2996  0.2192 -0.1185
 8649WAT     H126349   5.841   1.836   1.083 -1.3216  0.4572  0.0614
 8649WAT     H226350   5.835   1.768   1.218  0.4249  0.0034 -0.0640
 8650WAT      O26351   5.077   5.596   2.461 -0.8398  0.0640 -0.3519
 8650WAT     H126352   5.137   5.597   2.536 -0.0535  1.3333 -0.9426
 8650WAT     H226353   5.019   5.523   2.477 -1.8307  1.3219  2.3881
 8651WAT      O26354   1.064   4.816   5.425 -0.0203 -0.3713  0.1441
 8651WAT     H126355   1.046   4.841   5.516 -0.1674 -0.6753  0.2028
 8651WAT     H226356   1.145   4.764   5.430 -0.2048 -0.6634  0.1490
 8652WAT      O26357   1.700   3.727   2.588  0.2144  0.0620  0.2510
 8652WAT     H126358   1.728   3.808   2.630 -0.1805  0.1435  0.3547
 8652WAT     H226359   1.754   3.722   2.509  0.1227  0.5129  0.1575
 8653WAT      O26360   2.304   4.686   6.109  0.0104  0.0971 -0.0962
 8653WAT     H126361   2.343   4.600   6.095  0.9725  0.2914  1.1787
 8653WAT     H226362   2.270   4.683   6.199  0.5403  1.2086  0.1632
 8654WAT      O26363   1.935   2.684   4.438 -0.6745 -0.4540  0.2110
 8654WAT     H126364   1.893   2.598   4.447 -1.3076 -0.1951 -0.2430
 8654WAT     H226365   1.866   2.747   4.458 -0.1249 -0.0467  0.8757
 8655WAT      O26366   4.415   0.659   0.295 -0.0796  0.0066 -0.1178
 8655WAT     H126367   4.326   0.661   0.330  0.2172 -0.6393  0.7140
 8655WAT     H226368   4.466   0.713   0.356  0.8620 -2.8186  1.7959
 8656WAT      O26369   3.756   4.543   1.824  0.0018 -0.7813 -0.2450
 8656WAT     H126370   3.750   4.617   1.884 -0.4670 -0.4331 -0.7115
 8656WAT     H226371   3.789   4.471   1.878 -2.1622 -0.9986  0.9020
 8657WAT      O26372   2.657   1.421   5.708 -0.3389  0.8357 -0.0651
 8657WAT     H126373   2.672   1.390   5.797 -0.5231  1.9793  0.3755
 8657WAT     H226374   2.745   1.442   5.675 -0.4510  3.0659  0.8640
 8658WAT      O26375   2.342   0.696   0.680 -0.4267  0.2455  0.0923
 8658WAT     H126376   2.264   0.649   0.711 -0.2243 -0.8015 -0.9307
 8658WAT     H226377   2.391   0.715   0.760 -0.1056 -2.0557  0.5057
 8659WAT      O26378   4.959   6.447   1.428 -0.8976  0.0027 -0.2524
 8659WAT     H126379   4.919   6.508   1.366 -0.7861  0.8526  0.4895
 8659WAT     H226380   5.012   6.388   1.374 -1.8525 -0.1166 -1.0812
 8660WAT      O26381   2.744   4.520   0.514  0.4443 -0.0161 -0.1610
 8660WAT     H126382   2.670   4.498   0.457  1.5545 -0.6969 -1.3978
 8660WAT     H226383   2.737   4.458   0.586 -1.2546  1.1656  0.7487
 8661WAT      O26384   4.406   0.303   6.082 -0.6109  0.3627 -0.5744
 8661WAT     H126385   4.318   0.293   6.047 -0.8849 -2.3422  0.6306
 8661WAT     H226386   4.393   0.311   6.177  0.3531  2.5229 -0.5743
 8662WAT      O26387   7.584   5.869   1.926 -0.6370  0.4888  0.8927
 8662WAT     H126388   7.580   5.833   2.014 -1.4424 -0.3639  0.5341
 8662WAT     H226389   7.581   5.964   1.938  1.1533  0.4507  1.8519
 8663WAT      O26390   4.098   3.574   5.152  0.0278  0.0821 -0.1017
 8663WAT     H126391   4.114   3.501   5.211  1.0283  0.0485 -0.3881
 8663WAT     H226392   4.029   3.543   5.094  1.7148 -1.4093 -1.4381
 8664WAT      O26393   7.194   0.753   0.128  0.3248  0.5092 -0.2646
 8664WAT     H126394   7.251   0.693   0.176  0.5232  0.2997 -0.7555
 8664WAT     H226395   7.192   0.833   0.182 -0.1422 -0.0143  0.5203
 8665WAT      O26396   6.823   3.555   5.914 -0.3884  0.0030 -0.2970
 8665WAT     H126397   6.834   3.615   5.988 -0.6769 -1.5005  1.0288
 8665WAT     H226398   6.790   3.474   5.954 -0.2037 -0.9760 -2.0322
 8666WAT      O26399   1.527   0.103   4.148 -0.1951  0.3327  0.4935
 8666WAT     H126400   1.540   0.037   4.216  0.7668 -1.0101 -0.9041
 8666WAT     H226401   1.449   0.151   4.175 -1.0573 -1.5244  1.4760
 8667WAT      O26402   6.050   2.721   5.108 -0.3225 -0.7314  0.2435
 8667WAT     H126403   6.006   2.641   5.136 -0.7608 -0.1567  1.2888
 8667WAT     H226404   5.999   2.791   5.149  0.1778  0.0680 -0.4764
 8668WAT      O26405   4.857   2.009   4.073  0.5969  0.2747  0.3532
 8668WAT     H126406   4.916   1.934   4.065 -1.2787 -1.3077  0.6818
 8668WAT     H226407   4.814   1.997   4.157  0.1144  1.6522  0.3281
 8669WAT      O26408   3.737   3.999   4.752 -0.1791 -0.0680  0.4982
 8669WAT     H126409   3.736   4.002   4.847 -0.6834 -0.0487  0.4971
 8669WAT     H226410   3.648   4.026   4.726  0.2103  0.7907 -0.0001
 8670WAT      O26411   0.662   1.355   6.023 -0.2507  0.3135  0.1096
 8670WAT     H126412   0.655   1.264   5.993 -0.2777  0.2392  0.3349
 8670WAT     H226413   0.597   1.362   6.094  0.5466  0.1760  0.8767
 8671WAT      O26414   3.170   5.578   5.336 -0.2367  0.1500 -0.1057
 8671WAT     H126415   3.097   5.640   5.344 -0.9341 -0.7109  0.4230
 8671WAT     H226416   3.209   5.575   5.423 -0.4708 -0.4489 -0.0122
 8672WAT      O26417   4.011   5.911   6.086 -0.0898 -0.0284  0.1236
 8672WAT     H126418   3.973   5.838   6.038  0.2118 -0.7573  0.9704
 8672WAT     H226419   4.094   5.877   6.120 -0.1458  0.5672  0.8893
 8673WAT      O26420   2.998   4.475   1.407 -0.5846  0.3409  0.3717
 8673WAT     H126421   3.001   4.380   1.419 -0.4561  0.0976 -1.3389
 8673WAT     H226422   2.988   4.510   1.495 -2.1891 -1.3238  0.9176
 8674WAT      O26423   5.320   1.100   5.212  0.1268  0.0013  0.0629
 8674WAT     H126424   5.269   1.181   5.206  1.1810  0.6206 -0.8114
 8674WAT     H226425   5.285   1.056   5.290 -1.9743  0.2211 -0.7049
 8675WAT      O26426   5.079   1.121   4.733 -0.0052  0.2810  0.9032
 8675WAT     H126427   5.116   1.036   4.711  0.6045  0.6856  0.3090
 8675WAT     H226428   5.155   1.176   4.753 -0.2337  1.1468 -0.4234
 8676WAT      O26429   0.693   2.355   1.794  0.3837 -0.6042 -0.6377
 8676WAT     H126430   0.746   2.322   1.866  2.3269  0.9340 -1.2603
 8676WAT     H226431   0.606   2.316   1.807  2.1890 -5.4357 -0.9849
 8677WAT      O26432   0.899   1.965   4.070 -0.3868  0.6640 -0.3298
 8677WAT     H126433   0.895   1.940   4.163 -1.6587  3.9020  0.6415
 8677WAT     H226434   0.983   2.011   4.062  0.2442 -0.5908 -1.1178
 8678WAT      O26435   1.386   4.737   4.992 -0.3618  0.3909  0.0653
 8678WAT     H126436   1.353   4.725   5.081 -0.6688  0.6743 -0.0095
 8678WAT     H226437   1.477   4.765   5.004 -1.0042  2.5309  0.3585
 8679WAT      O26438   3.210   6.291   0.022  1.0653 -0.6520 -0.2140
 8679WAT     H126439   3.121   6.291   0.056  0.4242  0.0185 -1.7975
 8679WAT     H226440   3.263   6.325   0.095 -0.0073 -0.7231  0.6300
 8680WAT      O26441   5.541   4.922   0.339 -0.2764 -0.4149  0.7262
 8680WAT     H126442   5.547   4.893   0.430  1.3365 -1.0522  0.4519
 8680WAT     H226443   5.608   4.991   0.332 -1.9605  1.2721  0.5810
 8681WAT      O26444   5.308   6.507   0.095 -0.7809 -0.2175  0.0825
 8681WAT     H126445   5.318   6.558   0.014  2.9035 -1.7895 -0.6721
 8681WAT     H226446   5.269   6.425   0.067  0.4510 -0.7432 -0.1489
 8682WAT      O26447   1.276   0.148   3.109  0.2467 -0.3800  0.6046
 8682WAT     H126448   1.344   0.085   3.133 -1.0167 -2.2395 -0.4720
 8682WAT     H226449   1.292   0.166   3.016 -0.7256 -0.8624  0.3287
 8683WAT      O26450   2.714   2.800   2.816  0.4247  0.3253 -0.1409
 8683WAT     H126451   2.777   2.842   2.757  1.0653 -0.7818 -0.2797
 8683WAT     H226452   2.769   2.753   2.880 -0.2547 -0.2843  0.0084
 8684WAT      O26453   4.643   0.030   1.748  0.4494  0.2893  0.4861
 8684WAT     H126454   4.718   0.025   1.689 -0.4322  1.4464 -0.8100
 8684WAT     H226455   4.567   0.017   1.690 -0.3919 -0.1047  1.6387
 8685WAT      O26456   3.788   0.320   4.349  0.2000 -0.1598 -0.1242
 8685WAT     H126457   3.796   0.397   4.293  0.2111  1.2117  1.6709
 8685WAT     H226458   3.860   0.327   4.411 -1.2511 -0.2208  1.6640
 8686WAT      O26459   4.078   6.847   3.933 -0.0989 -0.8205 -0.4479
 8686WAT     H126460   4.068   6.795   3.853 -1.2374 -1.2039 -0.0736
 8686WAT     H226461   3.988   6.868   3.959  0.0084 -3.1164  2.3127
 8687WAT      O26462   3.202   6.000   0.610  0.4062 -0.4348  0.2437
 8687WAT     H126463   3.131   5.947   0.643 -0.5167  1.3071  1.1783
 8687WAT     H226464   3.258   6.016   0.686  0.2280  0.5837  0.1734
 8688WAT      O26465   4.011   4.473   1.742 -0.3758  0.4869  0.0550
 8688WAT     H126466   4.086   4.512   1.787  0.7650  0.6529 -1.9154
 8688WAT     H226467   3.940   4.535   1.756  0.7471  2.0287 -0.8840
 8689WAT      O26468   3.437   4.625   6.035 -0.2898  0.0731 -0.3673
 8689WAT     H126469   3.387   4.566   5.979 -0.7265 -0.5505  0.6520
 8689WAT     H226470   3.442   4.580   6.119  2.0610  0.0914 -0.4320
 8690WAT      O26471   4.638   6.373   5.495 -0.0708  0.1163 -0.1056
 8690WAT     H126472   4.680   6.394   5.578 -1.3384  0.2081  0.5467
 8690WAT     H226473   4.613   6.459   5.460 -0.1225  0.0395 -0.2545
 8691WAT      O26474   3.902   1.818   4.720 -0.0080 -0.2369 -0.4003
 8691WAT     H126475   3.922   1.845   4.810  1.3114 -0.3445 -0.6512
 8691WAT     H226476   3.848   1.890   4.685 -0.3003 -0.0642  0.3764
 8692WAT      O26477   2.328   2.587   2.760  0.4603 -0.2885  0.3243
 8692WAT     H126478   2.359   2.675   2.781 -2.9703  1.4224 -1.0664
 8692WAT     H226479   2.277   2.597   2.680 -2.6189 -2.8726  1.6983
 8693WAT      O26480   6.894   2.692   5.924 -0.3202 -0.1809 -0.0809
 8693WAT     H126481   6.832   2.720   5.857 -1.8096  1.2873  1.7885
 8693WAT     H226482   6.841   2.674   6.001  1.5601  2.5652  2.0817
 8694WAT      O26483   4.065   3.516   0.761  0.2694  0.2041 -0.1340
 8694WAT     H126484   3.986   3.493   0.812 -0.6328  1.0055 -1.1323
 8694WAT     H226485   4.106   3.586   0.812 -0.6407  1.0178 -0.4708
 8695WAT      O26486   6.769   5.033   2.294  0.1382 -0.0072  0.6313
 8695WAT     H126487   6.780   5.120   2.334 -0.0350  0.5869 -0.5864
 8695WAT     H226488   6.783   4.972   2.367  0.1568  1.0367  1.5322
 8696WAT      O26489   1.636   0.122   6.032  0.2225  0.4651  0.1427
 8696WAT     H126490   1.546   0.134   6.003 -0.0379 -1.4914  0.0167
 8696WAT     H226491   1.636   0.036   6.075  1.9189  0.6537  0.5819
 8697WAT      O26492   2.294   1.899   2.034 -0.4344  0.3349  0.1317
 8697WAT     H126493   2.294   1.836   2.106 -0.4700  0.4270  0.2123
 8697WAT     H226494   2.209   1.889   1.993 -0.4076  0.2704  0.0918
 8698WAT      O26495   1.475   3.208   0.555 -0.4483 -0.3662  0.0537
 8698WAT     H126496   1.538   3.143   0.523 -0.9666 -0.8062 -0.0923
 8698WAT     H226497   1.515   3.245   0.633  0.7063  0.4932 -0.8998
 8699WAT      O26498   1.826   6.516   3.980 -0.6176  0.2169 -0.6920
 8699WAT     H126499   1.786   6.539   4.064  0.2011 -0.2184 -0.1687
 8699WAT     H226500   1.761   6.543   3.915 -1.0485  1.0443  0.0437
 8700WAT      O26501   1.603   3.252   2.841 -0.1467  0.2898  0.1487
 8700WAT     H126502   1.641   3.223   2.923  0.4752  1.5673  0.3423
 8700WAT     H226503   1.648   3.335   2.822 -0.9611  0.4951 -0.9820
 8701WAT      O26504   5.101   2.888   4.985 -0.9228 -0.5249 -0.1424
 8701WAT     H126505   5.155   2.918   5.059 -0.6871 -0.4701 -0.3372
 8701WAT     H226506   5.048   2.964   4.962  0.0441 -0.0908 -0.9702
 8702WAT      O26507   6.854   6.885   1.843 -0.2129 -0.4708  0.4391
 8702WAT     H126508   6.833   6.913   1.754 -1.3841 -1.0667  0.4958
 8702WAT     H226509   6.895   6.961   1.884 -2.9286  1.0935  0.5005
 8703WAT      O26510   0.106   5.249   4.933 -0.5139 -0.3686  0.2710
 8703WAT     H126511   0.174   5.300   4.890 -1.5372  0.2265 -0.6889
 8703WAT     H226512   0.151   5.169   4.962  1.4038  1.4917  2.8540
 8704WAT      O26513   4.795   5.131   5.615  0.3159  0.2876  0.3806
 8704WAT     H126514   4.744   5.097   5.542  0.0627 -1.4941  1.3430
 8704WAT     H226515   4.735   5.192   5.659  0.2837  0.9456 -0.5412
 8705WAT      O26516   6.019   5.375   2.143 -0.0847  0.0285  0.3890
 8705WAT     H126517   6.044   5.282   2.141  0.8629  0.2727  0.6330
 8705WAT     H226518   6.091   5.418   2.189 -1.0690  0.7216  1.3251
 8706WAT      O26519   7.577   3.706   1.496 -0.3780 -0.6682 -0.6010
 8706WAT     H126520   7.641   3.757   1.447 -1.5452 -0.2370 -1.7182
 8706WAT     H226521   7.525   3.771   1.542  1.7754 -1.0705  2.7884
 8707WAT      O26522   2.778   5.247   2.710  0.2000  0.3008 -0.1714
 8707WAT     H126523   2.808   5.177   2.769  0.2310 -0.4329 -1.0428
 8707WAT     H226524   2.702   5.285   2.755 -0.1061 -0.5979  0.0928
 8708WAT      O26525   7.292   2.277   6.123 -0.3779 -0.0658  0.3199
 8708WAT     H126526   7.241   2.196   6.118 -0.3721  0.0092 -2.1357
 8708WAT     H226527   7.229   2.344   6.146 -1.4630 -0.0128 -2.4326
 8709WAT      O26528   7.213   6.006   4.039  0.3381 -0.2052 -0.2562
 8709WAT     H126529   7.166   5.942   4.093 -0.6203 -0.4369 -1.3251
 8709WAT     H226530   7.306   5.987   4.055  0.0773 -0.5825  0.9166
 8710WAT      O26531   6.859   1.607   6.021 -0.1861  0.0515  0.8299
 8710WAT     H126532   6.840   1.518   6.049 -1.5113  0.3321  0.8895
 8710WAT     H226533   6.800   1.623   5.948  0.3201  0.7446  0.5625
 8711WAT      O26534   0.279   1.063   0.587  0.2265  0.3360 -0.3491
 8711WAT     H126535   0.274   1.078   0.682  0.1677  0.6088 -0.3974
 8711WAT     H226536   0.238   0.977   0.575  2.0155 -0.6494  0.1237
 8712WAT      O26537   1.966   1.243   2.396  0.1503  0.4545 -0.0782
 8712WAT     H126538   1.928   1.323   2.432  0.4897  1.0793 -1.0835
 8712WAT     H226539   1.979   1.186   2.473 -1.9507  0.5546  0.3977
 8713WAT      O26540   2.689   1.600   0.941  0.0210  0.5785  0.3942
 8713WAT     H126541   2.784   1.605   0.933  0.2153 -0.4040  1.7455
 8713WAT     H226542   2.673   1.578   1.033 -1.5419  1.1982  0.3129
 8714WAT      O26543   5.075   0.667   4.375 -0.0939  0.0043 -0.9751
 8714WAT     H126544   5.136   0.709   4.437  0.8852  0.6393 -2.3148
 8714WAT     H226545   5.055   0.582   4.414  1.3842 -0.0669 -0.3201
 8715WAT      O26546   1.569   6.691   1.796  0.3438 -0.1509  0.1291
 8715WAT     H126547   1.591   6.685   1.889  0.1833 -0.0619  0.1723
 8715WAT     H226548   1.597   6.606   1.760 -0.2619 -0.4725  0.4006
 8716WAT      O26549   5.956   3.357   0.998  1.0816  0.5925  0.2673
 8716WAT     H126550   5.962   3.417   1.073  2.4025  0.2415  0.4634
 8716WAT     H226551   6.022   3.291   1.015 -0.7071 -1.2727  0.3105
 8717WAT      O26552   4.401   5.854   5.990 -0.4496 -0.2755 -0.5024
 8717WAT     H126553   4.348   5.831   6.067 -1.9598  0.9808 -1.1114
 8717WAT     H226554   4.437   5.771   5.959 -1.4176 -1.0535  0.4157
 8718WAT      O26555   6.327   3.922   2.633  0.2082  0.3235 -0.4546
 8718WAT     H126556   6.335   3.932   2.538 -1.3092 -2.1469 -0.9267
 8718WAT     H226557   6.387   3.850   2.655 -1.5180 -1.0543 -0.0462
 8719WAT      O26558   5.942   2.976   4.010  0.5687 -0.0477  0.6994
 8719WAT     H126559   6.023   2.998   3.966  1.6608 -0.0272  2.5910
 8719WAT     H226560   5.902   3.060   4.032  1.6369  0.0490  2.4761
 8720WAT      O26561   3.677   1.404   3.529  0.1094  0.4452 -0.0289
 8720WAT     H126562   3.712   1.493   3.540 -0.4573  0.4900  1.5804
 8720WAT     H226563   3.713   1.355   3.602 -0.1043 -0.5067 -0.5523
 8721WAT      O26564   5.472   4.249   0.576  0.1295  0.0640 -0.1242
 8721WAT     H126565   5.390   4.272   0.533 -0.6633  0.1691  1.3520
 8721WAT     H226566   5.451   4.171   0.628  0.3329  1.3041  1.9429
 8722WAT      O26567   5.328   6.954   1.540  0.1816  0.3680 -0.1256
 8722WAT     H126568   5.417   6.975   1.567  0.8859 -1.0069 -1.2951
 8722WAT     H226569   5.305   6.876   1.590  0.5256 -0.6471 -1.5061
 8723WAT      O26570   3.313   2.612   6.073 -0.1437  0.5769 -0.5212
 8723WAT     H126571   3.321   2.523   6.107  0.4267  0.3568 -1.2094
 8723WAT     H226572   3.276   2.601   5.986  1.1229  0.9113 -1.1137
 8724WAT      O26573   1.745   2.420   5.862  0.1420  0.3520 -0.5974
 8724WAT     H126574   1.704   2.361   5.927  0.0354 -1.6394 -2.3646
 8724WAT     H226575   1.676   2.437   5.799  0.5203  1.4829 -0.7159
 8725WAT      O26576   4.939   5.327   4.110 -0.8354  0.0295  0.7794
 8725WAT     H126577   4.884   5.294   4.181 -1.1598 -0.3048  0.3751
 8725WAT     H226578   4.959   5.417   4.135  1.0056 -0.7696  2.4772
 8726WAT      O26579   6.706   3.693   1.088 -0.2472  0.4031 -0.5599
 8726WAT     H126580   6.674   3.737   1.167 -1.7910 -0.4142 -0.6870
 8726WAT     H226581   6.798   3.720   1.081  0.5809 -1.1174  2.6819
 8727WAT      O26582   4.120   3.454   0.101  0.3756  0.0754 -0.4203
 8727WAT     H126583   4.169   3.501   0.169  1.4743 -0.4059 -0.8447
 8727WAT     H226584   4.152   3.493   0.019 -1.5399  1.2330 -0.6679
 8728WAT      O26585   5.928   1.073   1.197  0.5279 -0.6110  0.5301
 8728WAT     H126586   5.966   1.027   1.272 -0.4614 -0.3936  1.1865
 8728WAT     H226587   5.935   1.010   1.125  0.7750 -1.1272  0.9925
 8729WAT      O26588   4.446   1.217   5.001  0.1713 -0.0217  0.3198
 8729WAT     H126589   4.457   1.161   4.924 -3.5304 -0.4857 -0.0432
 8729WAT     H226590   4.375   1.176   5.051 -1.1373  3.0556  1.2508
 8730WAT      O26591   4.506   0.673   0.042 -0.3677  0.0280  0.1883
 8730WAT     H126592   4.591   0.628   0.047 -0.5907 -0.3533  0.6949
 8730WAT     H226593   4.474   0.674   0.133 -1.7287 -1.4531 -0.2341
 8731WAT      O26594   6.936   1.773   2.954  0.5242 -0.4406 -0.1599
 8731WAT     H126595   6.999   1.708   2.987  0.4177  0.2233  1.4543
 8731WAT     H226596   6.854   1.752   3.000 -0.6360 -1.5922 -2.5848
 8732WAT      O26597   5.799   3.206   2.254  0.1566  0.1414  0.1799
 8732WAT     H126598   5.720   3.260   2.253  0.0677  0.0069 -0.1806
 8732WAT     H226599   5.773   3.127   2.302  0.1938  0.2765  0.4245
 8733WAT      O26600   1.030   2.120   1.151 -0.7526 -0.4891  0.6130
 8733WAT     H126601   0.956   2.164   1.192 -0.5624 -0.6166  1.0944
 8733WAT     H226602   1.062   2.059   1.217  1.0531  0.9932  1.2120
 8734WAT      O26603   4.079   1.375   0.915 -0.1851 -0.0909 -0.5699
 8734WAT     H126604   4.024   1.399   0.989 -0.3684  0.5077 -0.8904
 8734WAT     H226605   4.161   1.421   0.930 -0.7483  1.2843 -1.4967
 8735WAT      O26606   2.437   6.577   2.696  0.0416 -0.6264  0.1257
 8735WAT     H126607   2.512   6.633   2.714  0.3116 -0.2335 -1.9797
 8735WAT     H226608   2.475   6.500   2.653 -0.7377 -0.2947 -1.2284
 8736WAT      O26609   6.453   3.714   4.733 -0.2475  0.0109 -0.2983
 8736WAT     H126610   6.449   3.719   4.637 -1.3698  0.2124 -0.2517
 8736WAT     H226611   6.448   3.620   4.752 -2.3394  0.0789 -0.3715
 8737WAT      O26612   5.767   1.867   0.342  0.5232  0.0036  0.3594
 8737WAT     H126613   5.838   1.810   0.313  0.6324  0.2173  0.2000
 8737WAT     H226614   5.811   1.937   0.391  0.5636  0.8192 -0.7812
 8738WAT      O26615   0.325   3.991   3.424  0.3062  0.8123 -0.3745
 8738WAT     H126616   0.321   4.007   3.330  0.5198  1.6715 -0.2436
 8738WAT     H226617   0.371   3.908   3.432 -2.2844 -0.8228 -1.1599
 8739WAT      O26618   0.665   1.337   2.403 -0.5271 -0.6861 -0.1598
 8739WAT     H126619   0.608   1.321   2.478  0.9847 -0.9769  0.9914
 8739WAT     H226620   0.743   1.285   2.421 -0.3692 -1.2732 -2.2761
 8740WAT      O26621   6.390   2.026   3.638  0.0493  0.2438  0.3080
 8740WAT     H126622   6.361   2.005   3.727  0.9838 -0.3049  0.4945
 8740WAT     H226623   6.379   2.121   3.630  1.2408  0.5053  1.4969
 8741WAT      O26624   6.431   1.581   6.063  0.1052 -0.2631  0.0740
 8741WAT     H126625   6.446   1.675   6.058 -0.3940 -0.2119 -0.6917
 8741WAT     H226626   6.480   1.552   6.139  1.5138  0.3738 -0.5655
 8742WAT      O26627   4.354   0.403   1.504  0.6258  0.3253 -0.4522
 8742WAT     H126628   4.376   0.401   1.597  0.5293  0.4206 -0.4269
 8742WAT     H226629   4.404   0.331   1.466 -1.5196 -1.5984  0.1541
 8743WAT      O26630   2.783   5.585   6.078 -0.3083  0.2246 -0.3132
 8743WAT     H126631   2.839   5.597   6.001 -1.0980  0.6475 -0.8352
 8743WAT     H226632   2.702   5.630   6.056 -1.8027 -2.4005 -0.5949
 8744WAT      O26633   5.428   2.198   0.708  0.3993  0.2467  0.1735
 8744WAT     H126634   5.375   2.175   0.632  1.0282  2.3721 -0.9720
 8744WAT     H226635   5.503   2.138   0.705 -0.0208 -0.2541 -0.3714
 8745WAT      O26636   2.077   2.735   2.650 -0.4306  0.0231 -0.5517
 8745WAT     H126637   1.984   2.739   2.672 -0.1674  0.2437  0.5734
 8745WAT     H226638   2.119   2.795   2.712  0.3983  0.3849 -1.4320
 8746WAT      O26639   1.800   3.859   1.798  0.3683  0.0079  0.0894
 8746WAT     H126640   1.865   3.929   1.813  1.2087 -0.8053  0.3515
 8746WAT     H226641   1.811   3.837   1.705 -1.1605  1.4332 -0.4748
 8747WAT      O26642   4.050   3.000   4.205 -0.3315 -0.4134  0.3320
 8747WAT     H126643   4.114   3.027   4.139  0.0767 -1.4844  0.2667
 8747WAT     H226644   4.068   2.907   4.220 -2.3113 -0.9289 -0.1723
 8748WAT      O26645   1.158   3.508   2.884 -0.4275 -0.5300 -0.2837
 8748WAT     H126646   1.157   3.575   2.817 -1.3373 -1.1294 -0.8860
 8748WAT     H226647   1.247   3.512   2.921 -0.5143  1.0774 -0.1940
 8749WAT      O26648   3.546   4.473   4.406  0.4975 -0.0755  0.0194
 8749WAT     H126649   3.549   4.542   4.472 -0.5738  0.7217 -0.7259
 8749WAT     H226650   3.594   4.400   4.445  1.4545  0.9988  0.9199
 8750WAT      O26651   5.380   4.658   1.162 -0.0895  0.0037  0.1045
 8750WAT     H126652   5.305   4.615   1.203  0.2373 -0.5699  0.1169
 8750WAT     H226653   5.443   4.672   1.233  0.5021 -1.0469 -0.1914
 8751WAT      O26654   3.608   7.203   1.346 -0.6473  0.2604 -0.2221
 8751WAT     H126655   3.530   7.149   1.363  1.4682 -3.3650 -0.8959
 8751WAT     H226656   3.629   7.242   1.430 -2.4268  0.2634  0.2620
 8752WAT      O26657   6.214   4.770   1.078  0.2234  0.5732 -0.2358
 8752WAT     H126658   6.190   4.794   0.988  0.9444  1.1171 -0.2954
 8752WAT     H226659   6.142   4.715   1.108 -0.6059  1.3684 -0.7206
 8753WAT      O26660   6.035   4.442   5.022 -0.4452  0.2333  0.1884
 8753WAT     H126661   5.986   4.415   4.945 -0.0842  0.4938 -0.1332
 8753WAT     H226662   6.126   4.442   4.995 -0.2161 -0.6625  0.9046
 8754WAT      O26663   2.723   4.093   5.387  0.2636 -0.1492  0.0937
 8754WAT     H126664   2.769   4.101   5.471  0.2908  0.5718  0.0228
 8754WAT     H226665   2.663   4.020   5.399 -1.5479  1.4637  1.6423
 8755WAT      O26666   6.786   5.779   3.718 -1.0836 -0.2576  0.2696
 8755WAT     H126667   6.824   5.717   3.655  1.3670  0.3918  1.0169
 8755WAT     H226668   6.692   5.779   3.697 -0.5363 -0.8144 -2.7225
 8756WAT      O26669   5.934   4.626   6.028  0.1038  0.1930  0.5771
 8756WAT     H126670   5.897   4.541   6.005  0.6054 -0.0373  0.6057
 8756WAT     H226671   5.988   4.609   6.105  1.7346  0.1549 -0.5218
 8757WAT      O26672   6.239   3.209   3.308 -0.9065 -0.0912 -0.3155
 8757WAT     H126673   6.288   3.152   3.248 -0.1100  1.1161 -0.8421
 8757WAT     H226674   6.278   3.192   3.394 -0.8966 -0.5642 -0.4081
 8758WAT      O26675   2.507   5.173   4.177 -0.7301  0.3058 -0.0624
 8758WAT     H126676   2.589   5.208   4.143 -1.2601  1.0196 -0.6408
 8758WAT     H226677   2.524   5.158   4.270  0.5684 -1.1343 -0.4927
 8759WAT      O26678   4.613   5.645   6.035  0.8141  0.1500 -0.6065
 8759WAT     H126679   4.688   5.692   5.998  1.8732  0.0621  1.3325
 8759WAT     H226680   4.624   5.652   6.129 -1.7597  0.3045 -0.2396
 8760WAT      O26681   1.209   2.294   0.633 -0.2894  0.0736  0.1760
 8760WAT     H126682   1.177   2.205   0.616  0.2588 -0.1364  0.2037
 8760WAT     H226683   1.253   2.319   0.551 -0.5742  0.3809  0.1158
 8761WAT      O26684   6.908   6.234   3.186 -0.2923 -0.4791 -0.4841
 8761WAT     H126685   6.872   6.288   3.257  0.4633 -0.6667  0.0605
 8761WAT     H226686   6.874   6.273   3.106 -1.2633 -0.3333 -0.0164
 8762WAT      O26687   7.184   1.813   3.998 -0.2868 -0.5237  0.3875
 8762WAT     H126688   7.180   1.718   3.997 -0.3749 -0.5192 -0.7371
 8762WAT     H226689   7.270   1.834   3.964  1.3203 -0.2223  4.1824
 8763WAT      O26690   2.812   2.956   2.495  0.3179 -0.4044 -0.0451
 8763WAT     H126691   2.882   2.992   2.549  1.8993 -1.7864 -1.0715
 8763WAT     H226692   2.857   2.922   2.418 -1.6696 -0.0573 -1.4340
 8764WAT      O26693   0.630   1.868   5.114  0.4938 -0.1562  0.2531
 8764WAT     H126694   0.629   1.788   5.166  0.9533  0.2501  0.8994
 8764WAT     H226695   0.717   1.870   5.074 -0.2123 -1.0097 -1.4266
 8765WAT      O26696   7.119   2.942   5.522 -0.4696  0.8090 -0.0163
 8765WAT     H126697   7.141   2.988   5.604 -1.8052 -0.1399  0.9158
 8765WAT     H226698   7.150   3.001   5.453  0.8213  1.5838  1.1489
 8766WAT      O26699   2.299   2.337   3.349 -0.0403  0.2827 -0.2018
 8766WAT     H126700   2.279   2.362   3.259  1.2382  0.6000 -0.4016
 8766WAT     H226701   2.212   2.324   3.389 -0.8110  3.9535 -0.3563
 8767WAT      O26702   1.146   5.621   4.023 -0.7187 -0.0171 -0.2601
 8767WAT     H126703   1.080   5.659   4.082  0.6380  0.6762  0.8709
 8767WAT     H226704   1.194   5.696   3.989 -0.4614 -0.5224 -1.0377
 8768WAT      O26705   3.769   7.109   3.890 -0.0901 -0.0697 -0.2485
 8768WAT     H126706   3.699   7.149   3.941  0.8590  0.7433  0.4723
 8768WAT     H226707   3.836   7.178   3.885  2.0558 -1.8270  1.8873
 8769WAT      O26708   0.358   4.721   2.176 -0.1263 -0.0290  0.2257
 8769WAT     H126709   0.340   4.803   2.129 -0.6813 -0.2121  0.1090
 8769WAT     H226710   0.347   4.653   2.110 -2.1145 -0.3836  0.8650
 8770WAT      O26711   3.822   2.950   4.840  0.1290  0.5533  0.1299
 8770WAT     H126712   3.753   2.899   4.798 -0.4459  1.1373  0.3556
 8770WAT     H226713   3.804   3.040   4.816  1.1928  0.6525 -0.3321
 8771WAT      O26714   7.574   6.391  -0.002 -0.3662 -0.1967 -0.1156
 8771WAT     H126715   7.608   6.376   0.086  1.3647 -1.8187 -0.9793
 8771WAT     H226716   7.496   6.335  -0.008 -0.8621  0.4002  0.5504
 8772WAT      O26717   2.664   5.230   6.244 -0.1698  0.4683 -0.3578
 8772WAT     H126718   2.745   5.276   6.266  0.7112 -0.6570 -1.1285
 8772WAT     H226719   2.605   5.248   6.317  0.6524  1.6011  0.0390
 8773WAT      O26720   1.445   6.538   5.528  0.1990  0.2511 -0.2437
 8773WAT     H126721   1.383   6.577   5.589 -0.8948 -2.2467  0.3660
 8773WAT     H226722   1.531   6.559   5.564 -0.2878  2.1956 -0.0955
 8774WAT      O26723   4.467   5.128   1.907 -0.1772 -0.0551  0.0541
 8774WAT     H126724   4.398   5.162   1.965  0.2302  0.4421  0.2517
 8774WAT     H226725   4.428   5.131   1.820 -0.3953  0.2532  0.1603
 8775WAT      O26726   2.212   3.959   4.366  0.1008  0.0647  0.1492
 8775WAT     H126727   2.187   3.896   4.434 -0.0233  0.7177  0.7206
 8775WAT     H226728   2.195   4.045   4.405  1.8094  0.5035  0.0131
 8776WAT      O26729   3.268   0.435   0.529  0.1744  0.2392  0.6971
 8776WAT     H126730   3.356   0.419   0.496  0.5223  1.1899  1.1282
 8776WAT     H226731   3.233   0.348   0.547  1.0694 -0.1417  0.6499
 8777WAT      O26732   1.736   0.596   6.081  0.0607  0.3663 -0.2550
 8777WAT     H126733   1.658   0.626   6.128  0.8407  2.4002 -0.1621
 8777WAT     H226734   1.789   0.552   6.148 -0.7919 -0.6526 -0.2295
 8778WAT      O26735   3.662   3.416   5.636  0.3966 -0.0480 -0.0177
 8778WAT     H126736   3.740   3.428   5.581  1.4615 -1.7687  1.0338
 8778WAT     H226737   3.680   3.467   5.715 -0.6998  1.6114 -0.7845
 8779WAT      O26738   3.428   2.889   0.556  0.2744  0.5676  0.1262
 8779WAT     H126739   3.435   2.807   0.606 -0.0358  1.1323  1.1412
 8779WAT     H226740   3.333   2.903   0.547  0.3271  0.7010 -0.2278
 8780WAT      O26741   4.732   0.344   5.965  0.0932 -0.2376 -0.2494
 8780WAT     H126742   4.736   0.375   6.055  2.9799 -0.0742 -0.3398
 8780WAT     H226743   4.666   0.274   5.966 -0.1639 -0.0227  1.8956
 8781WAT      O26744   2.046   4.706   5.966 -0.5079 -0.2008  0.5110
 8781WAT     H126745   2.000   4.626   5.993  1.4761 -1.7065 -0.3186
 8781WAT     H226746   2.124   4.709   6.021  0.3255  0.1940 -0.6464
 8782WAT      O26747   0.829   5.536   4.071  0.2241 -0.1620 -0.8296
 8782WAT     H126748   0.747   5.553   4.119  1.0264  1.7268 -0.0630
 8782WAT     H226749   0.898   5.565   4.131  1.3929 -0.3266 -2.0650
 8783WAT      O26750   5.611   6.278   1.536 -0.3787  0.1990  0.3414
 8783WAT     H126751   5.637   6.370   1.531  0.7456  0.0392  2.1955
 8783WAT     H226752   5.517   6.281   1.552 -0.2426  1.0683  1.0844
 8784WAT      O26753   0.577   2.421   0.680 -0.3683 -0.4577  0.2480
 8784WAT     H126754   0.528   2.343   0.653 -0.8048  0.0177 -0.3662
 8784WAT     H226755   0.545   2.440   0.768  0.4316 -1.5131  0.8027
 8785WAT      O26756   0.519   5.448   5.143  0.1331 -0.1348  0.6885
 8785WAT     H126757   0.444   5.426   5.199 -0.2817  1.5129  0.8357
 8785WAT     H226758   0.593   5.403   5.184 -0.9257 -3.0096 -0.2718
 8786WAT      O26759   7.405   6.006   2.607 -0.2784 -0.0154 -0.0220
 8786WAT     H126760   7.370   5.977   2.691  0.2802 -0.6267  0.0157
 8786WAT     H226761   7.328   6.029   2.555 -0.7438 -1.2895  0.0681
 8787WAT      O26762   4.695   3.427   0.602 -0.1099 -0.0605 -0.0543
 8787WAT     H126763   4.628   3.363   0.580  0.0692 -0.2881  0.0588
 8787WAT     H226764   4.725   3.401   0.689 -0.3242  0.4161  0.1655
 8788WAT      O26765   6.616   3.083   4.774  0.2634 -0.5104  0.0922
 8788WAT     H126766   6.631   3.049   4.863  1.4286  0.6018  0.3553
 8788WAT     H226767   6.551   3.024   4.737 -0.8715 -0.5285  1.9582
 8789WAT      O26768   4.796   2.770   1.460 -0.4941 -0.6213  0.1436
 8789WAT     H126769   4.781   2.675   1.457  1.8361 -1.1485  2.1547
 8789WAT     H226770   4.717   2.805   1.503 -1.9116 -1.4379 -1.6706
 8790WAT      O26771   3.836   4.294   1.195 -0.6710 -0.5789  0.1532
 8790WAT     H126772   3.766   4.256   1.248 -2.0612  3.1259  1.2901
 8790WAT     H226773   3.911   4.299   1.254 -0.8475 -0.4580  0.3669
 8791WAT      O26774   6.740   7.187   0.150  0.2358 -0.0675  0.0592
 8791WAT     H126775   6.701   7.100   0.145 -2.2051  0.9145  0.5909
 8791WAT     H226776   6.754   7.202   0.243  1.2689 -0.1292 -0.0796
 8792WAT      O26777   1.924   0.199   1.471 -0.2037  0.1480  0.1890
 8792WAT     H126778   1.838   0.234   1.496 -1.3672 -0.9025 -2.0845
 8792WAT     H226779   1.984   0.272   1.484 -1.7859  1.5730 -0.1699
 8793WAT      O26780   0.013   6.919   0.913  0.6610 -0.3781  0.6959
 8793WAT     H126781  -0.011   6.835   0.953  0.9936 -0.5574  0.5226
 8793WAT     H226782  -0.026   6.985   0.970 -0.0080 -0.6557  0.5766
 8794WAT      O26783   0.204   6.749   3.057  0.1214 -0.2751  0.5512
 8794WAT     H126784   0.228   6.661   3.084  0.1500  0.0285  1.5402
 8794WAT     H226785   0.119   6.765   3.097 -0.6151 -0.4217 -0.9049
 8795WAT      O26786   1.304   5.564   0.637 -0.2997 -0.0638  0.0791
 8795WAT     H126787   1.339   5.478   0.659  3.3917  0.9784 -0.9982
 8795WAT     H226788   1.272   5.599   0.720  3.0269 -0.5103  1.7130
 8796WAT      O26789   1.383   1.860   3.132 -0.2989 -0.0732  0.0952
 8796WAT     H126790   1.299   1.884   3.092 -1.4658 -1.5005  1.5361
 8796WAT     H226791   1.398   1.926   3.199  0.7054  1.2367 -1.3625
 8797WAT      O26792   0.430   4.594   0.765  0.0196  0.5140  0.4751
 8797WAT     H126793   0.357   4.532   0.764  0.3475 -0.0080 -2.8896
 8797WAT     H226794   0.407   4.660   0.699  2.1638  0.7864 -0.0874
 8798WAT      O26795   2.307   0.370   6.163 -0.0327  0.1344 -0.1966
 8798WAT     H126796   2.263   0.374   6.248  0.8017  0.7256  0.2307
 8798WAT     H226797   2.338   0.280   6.156 -0.4065 -0.0083 -0.0295
 8799WAT      O26798   6.829   4.391   2.915  0.1795 -0.7716  0.2173
 8799WAT     H126799   6.903   4.350   2.960 -0.7973 -0.8628  1.8605
 8799WAT     H226800   6.820   4.343   2.833  0.7600 -2.0505  0.8750
 8800WAT      O26801   7.309   6.973   5.926 -0.0046  0.2882 -0.0482
 8800WAT     H126802   7.328   7.014   5.841 -2.3714  0.0775 -0.7360
 8800WAT     H226803   7.283   7.046   5.982  0.0801  0.2481  0.0426
 8801WAT      O26804   6.099   5.070   3.648  0.3578 -0.1049  0.3020
 8801WAT     H126805   6.030   5.077   3.714 -0.3227 -0.3345 -0.3740
 8801WAT     H226806   6.149   4.993   3.674 -2.5933 -3.0017 -1.8546
 8802WAT      O26807   1.865   5.447   5.656 -0.1988 -0.2574 -0.0376
 8802WAT     H126808   1.956   5.425   5.636  0.1824  1.3780 -0.2013
 8802WAT     H226809   1.815   5.411   5.582  0.4725  0.0041 -0.6270
 8803WAT      O26810   3.530   6.769   3.863 -0.0096 -0.1030  0.1007
 8803WAT     H126811   3.497   6.764   3.952 -1.3287 -2.7658 -0.4192
 8803WAT     H226812   3.490   6.694   3.818  1.3795  0.5495 -2.4683
 8804WAT      O26813   4.329   3.777   4.219  0.0369 -0.3585 -0.9158
 8804WAT     H126814   4.271   3.821   4.282  0.8748 -1.2301  0.5249
 8804WAT     H226815   4.417   3.807   4.243  0.6385 -2.7538  0.1242
 8805WAT      O26816   4.113   3.386   5.646  0.6100 -0.3134  0.0268
 8805WAT     H126817   4.056   3.457   5.674  1.1921  0.2240 -0.1351
 8805WAT     H226818   4.054   3.324   5.602 -0.0651 -0.4508  1.0974
 8806WAT      O26819   4.862   0.756   3.667 -0.3205 -0.2877  0.1052
 8806WAT     H126820   4.847   0.717   3.753 -0.3095  2.5153  1.4997
 8806WAT     H226821   4.802   0.830   3.664  0.0883  0.0111 -2.0910
 8807WAT      O26822   1.710   3.330   3.794  0.4275 -0.4025 -0.3473
 8807WAT     H126823   1.785   3.388   3.780  0.3270  0.3448  1.8564
 8807WAT     H226824   1.659   3.373   3.863 -1.2432 -1.6600 -0.7304
 8808WAT      O26825   6.619   6.241   4.407  0.3301 -0.0426 -0.2146
 8808WAT     H126826   6.617   6.150   4.435  0.4908 -0.2864 -0.9790
 8808WAT     H226827   6.529   6.271   4.420  0.1810 -0.4274 -0.3404
 8809WAT      O26828   1.999   3.091   3.913  0.5257 -0.1314  0.2478
 8809WAT     H126829   1.910   3.072   3.884  0.2379 -0.4397  1.2934
 8809WAT     H226830   2.030   3.008   3.950  1.6088 -0.3030 -0.9597
 8810WAT      O26831   1.310   5.016   2.302  0.2624  0.1841  0.3471
 8810WAT     H126832   1.262   4.987   2.225 -0.0502  1.0772  0.1915
 8810WAT     H226833   1.402   5.010   2.277  0.1576  0.7841 -0.2310
 8811WAT      O26834   6.294   0.425   5.394 -0.8418  0.3838 -0.2998
 8811WAT     H126835   6.234   0.360   5.428  0.3070 -0.4457  0.2018
 8811WAT     H226836   6.254   0.509   5.417 -0.3772 -0.1173  2.7308
 8812WAT      O26837   7.410   0.734   3.589 -0.1749 -0.3539 -0.3949
 8812WAT     H126838   7.366   0.675   3.650 -0.1977  0.0316 -0.0386
 8812WAT     H226839   7.338   0.778   3.542 -0.1717  0.1189  0.0376
 8813WAT      O26840   3.920   5.155   4.047  0.0619 -0.8430  0.0464
 8813WAT     H126841   4.003   5.113   4.026 -0.3362 -1.3188 -0.6141
 8813WAT     H226842   3.930   5.185   4.137  0.9297 -0.9353 -0.0142
 8814WAT      O26843   2.233   6.666   2.496 -0.4631 -0.1696  0.5143
 8814WAT     H126844   2.278   6.624   2.423  0.4610  0.5935  0.6169
 8814WAT     H226845   2.293   6.656   2.570 -0.3771  0.9668  0.6298
 8815WAT      O26846   4.738   1.580   6.215 -0.2971 -0.2045  0.4002
 8815WAT     H126847   4.655   1.607   6.254 -1.1383  0.5583 -1.8029
 8815WAT     H226848   4.747   1.634   6.137 -0.2483 -3.7565 -2.2923
 8816WAT      O26849   7.421   5.678   4.491  0.6916 -0.5076 -0.1973
 8816WAT     H126850   7.442   5.771   4.497 -1.2152 -0.0404 -0.1271
 8816WAT     H226851   7.344   5.667   4.547 -0.5171 -1.6455 -1.9672
 8817WAT      O26852   3.250   3.958   5.723 -0.5564 -0.8475  0.2536
 8817WAT     H126853   3.306   3.887   5.756 -3.0779 -1.9104  2.6830
 8817WAT     H226854   3.251   4.023   5.793 -0.1267  0.4526 -0.9344
 8818WAT      O26855   6.351   6.324   4.522 -0.0850 -0.7149  0.3557
 8818WAT     H126856   6.273   6.358   4.567  1.5858  2.4497  1.1979
 8818WAT     H226857   6.377   6.248   4.574 -1.0490 -0.1381  1.7673
 8819WAT      O26858   1.961   1.063   5.079 -0.2894  0.5538 -0.4737
 8819WAT     H126859   1.950   0.973   5.051 -0.6483  1.0075 -1.8325
 8819WAT     H226860   1.989   1.056   5.171  0.7655 -0.9538 -0.8730
 8820WAT      O26861   3.681   0.245   3.177 -0.0430  0.2117  0.0871
 8820WAT     H126862   3.642   0.285   3.254 -0.7397 -1.3769  0.5939
 8820WAT     H226863   3.609   0.240   3.113 -1.0133 -3.2688  1.2296
 8821WAT      O26864   4.920   4.274   3.321 -0.0268  0.4306 -0.9712
 8821WAT     H126865   4.867   4.247   3.246  2.7144  1.7041 -3.5336
 8821WAT     H226866   4.981   4.202   3.336 -0.4445  0.2535 -0.0246
 8822WAT      O26867   1.881   4.154   5.006  0.3258  0.4998  0.4884
 8822WAT     H126868   1.834   4.184   5.084 -1.7825  0.7885 -0.8189
 8822WAT     H226869   1.901   4.062   5.025 -0.7297  0.3825  1.1516
 8823WAT      O26870   0.913   2.380   2.186  0.5692 -0.7132 -0.0407
 8823WAT     H126871   0.901   2.422   2.271  1.2595 -0.8679  0.1421
 8823WAT     H226872   0.953   2.448   2.131 -0.9651 -0.2381 -0.6036
 8824WAT      O26873   5.018   2.152   4.481  0.0042  0.7779 -0.0976
 8824WAT     H126874   5.089   2.131   4.541  0.2157 -1.5475 -1.0717
 8824WAT     H226875   5.004   2.246   4.493  0.7390  0.6127  2.7861
 8825WAT      O26876   0.790   4.118   4.346 -0.8944 -0.6806  0.5152
 8825WAT     H126877   0.708   4.142   4.302  0.2071  0.1101 -1.1908
 8825WAT     H226878   0.809   4.030   4.313 -0.0821 -0.0985 -0.6140
 8826WAT      O26879   4.868   3.798   1.071  0.4416 -0.3404 -0.0813
 8826WAT     H126880   4.917   3.781   1.152 -1.1601 -0.7197  0.8392
 8826WAT     H226881   4.796   3.735   1.073  0.3179 -0.2800 -1.7647
 8827WAT      O26882   4.814   5.823   2.962 -0.4692  0.2404 -0.2507
 8827WAT     H126883   4.782   5.834   3.052 -1.4283  1.1327 -0.6796
 8827WAT     H226884   4.882   5.890   2.953 -0.7096  0.4767 -0.3328
 8828WAT      O26885   7.258   5.430   1.468  0.2142 -0.3138 -0.0030
 8828WAT     H126886   7.303   5.508   1.437 -0.8426  0.4015  0.2123
 8828WAT     H226887   7.272   5.429   1.562 -1.0175  0.4603  0.2058
 8829WAT      O26888   6.300   5.737   4.879  0.0279  0.2274  0.3142
 8829WAT     H126889   6.213   5.742   4.919  0.6046  2.3085  1.4531
 8829WAT     H226890   6.358   5.777   4.943  1.9272 -1.4452 -0.2678
 8830WAT      O26891   4.104   2.828   1.445 -0.4920 -0.1565 -0.3995
 8830WAT     H126892   4.055   2.846   1.364 -0.7083 -0.3194 -0.3070
 8830WAT     H226893   4.046   2.770   1.495 -0.9213  0.9766  0.4385
 8831WAT      O26894   3.440   4.036   4.856 -0.4906 -0.2003  0.3160
 8831WAT     H126895   3.434   4.042   4.951 -0.8852 -2.0005  0.4414
 8831WAT     H226896   3.360   3.991   4.829 -0.0623 -0.3470 -0.7960
 8832WAT      O26897   1.646   4.848   1.524 -0.1113  0.0629 -0.4938
 8832WAT     H126898   1.585   4.912   1.558 -0.7979  0.0362 -1.6072
 8832WAT     H226899   1.729   4.867   1.567 -0.3256  1.6563 -0.7473
 8833WAT      O26900   4.981   3.463   2.140  0.0158  0.3579  0.0124
 8833WAT     H126901   4.978   3.401   2.213 -1.4029 -0.7494 -0.9207
 8833WAT     H226902   4.927   3.537   2.169 -0.1058  0.1565  0.3059
 8834WAT      O26903   4.510   3.095   5.812  0.1919 -0.4779  0.4546
 8834WAT     H126904   4.546   3.082   5.899  1.8321  2.0484  0.2405
 8834WAT     H226905   4.464   3.179   5.817  2.1566  0.8444 -1.5694
 8835WAT      O26906   1.572   5.191   6.097  0.0680  0.4813  0.3348
 8835WAT     H126907   1.480   5.193   6.070  0.4464  0.4714 -1.0235
 8835WAT     H226908   1.573   5.232   6.183 -1.0475  1.4973 -0.1196
 8836WAT      O26909   4.832   1.734   1.495 -0.2529  0.1653 -0.2245
 8836WAT     H126910   4.871   1.780   1.421 -0.0923  0.0362 -0.2218
 8836WAT     H226911   4.901   1.734   1.562 -0.3257  0.1048 -0.1485
 8837WAT      O26912   0.615   6.113   0.517  0.3769 -0.0369 -0.7559
 8837WAT     H126913   0.619   6.034   0.463  0.0804 -0.9969  0.5775
 8837WAT     H226914   0.700   6.155   0.505 -0.1062  0.4175 -2.8839
 8838WAT      O26915   2.465   1.864   3.518  0.2782  0.3504 -0.7074
 8838WAT     H126916   2.481   1.802   3.590 -0.8259 -0.8003 -1.4271
 8838WAT     H226917   2.488   1.815   3.439 -1.4431  0.5277 -1.3522
 8839WAT      O26918   5.860   5.198   0.094 -0.0854  0.0612  0.6777
 8839WAT     H126919   5.833   5.201   0.002  2.7980 -1.4619 -0.3818
 8839WAT     H226920   5.864   5.289   0.122 -0.5506  0.5847 -0.8955
 8840WAT      O26921   4.770   3.674   0.308 -0.7207  0.0686 -0.7879
 8840WAT     H126922   4.692   3.695   0.257 -1.8672  0.4330  1.0188
 8840WAT     H226923   4.756   3.718   0.392  1.3296 -0.0665 -0.3338
 8841WAT      O26924   5.698   6.115   1.339 -0.1305  0.4634  0.2241
 8841WAT     H126925   5.789   6.140   1.355 -0.3536 -0.4723  3.9630
 8841WAT     H226926   5.646   6.186   1.377 -0.9833  0.3177 -0.6179
 8842WAT      O26927   3.021   1.789   4.457 -0.0676  0.2595  0.0476
 8842WAT     H126928   2.991   1.861   4.513  3.1571  1.0756  0.9573
 8842WAT     H226929   3.048   1.721   4.518  1.4178  0.2478 -0.5917
 8843WAT      O26930   4.927   5.430   2.610 -0.0277 -0.2565  0.3500
 8843WAT     H126931   4.958   5.365   2.673  0.0576  1.0038  1.6703
 8843WAT     H226932   4.923   5.512   2.660 -0.0317  0.7837 -1.2766
 8844WAT      O26933   2.668   3.523   0.174 -0.1451  1.1299  0.4467
 8844WAT     H126934   2.692   3.566   0.256 -1.3407  0.7472  1.0109
 8844WAT     H226935   2.752   3.499   0.134  0.5350  3.1545  0.5456
 8845WAT      O26936   3.563   3.894   0.812 -0.3814  0.5243  0.2665
 8845WAT     H126937   3.469   3.913   0.807 -0.7473 -1.3144 -0.8141
 8845WAT     H226938   3.567   3.810   0.857  0.5013 -0.7477 -2.0189
 8846WAT      O26939   5.604   1.524   3.751  0.1851 -0.4039 -0.2315
 8846WAT     H126940   5.521   1.489   3.718  0.1356  0.3188 -0.9169
 8846WAT     H226941   5.584   1.614   3.777  0.3585 -0.7801  1.2906
 8847WAT      O26942   1.511   0.681   0.797  0.4033 -0.1532  0.1299
 8847WAT     H126943   1.551   0.596   0.777 -0.8463 -0.9893  1.0067
 8847WAT     H226944   1.584   0.737   0.822  1.3883 -0.6111 -1.5643
 8848WAT      O26945   4.950   2.908   1.270 -0.0201  0.7772 -0.1141
 8848WAT     H126946   5.031   2.858   1.256  0.7112  1.3579  1.7095
 8848WAT     H226947   4.905   2.861   1.340 -0.7485  1.0606 -0.3892
 8849WAT      O26948   0.555   1.979   4.792 -0.5731 -0.4678 -0.0111
 8849WAT     H126949   0.550   1.884   4.807 -0.1047 -0.4074  0.5749
 8849WAT     H226950   0.496   1.995   4.719  0.0746 -1.3593 -0.7461
 8850WAT      O26951   1.449   0.507   1.793  0.3559  0.2682 -0.6111
 8850WAT     H126952   1.447   0.576   1.859 -0.3842  0.2511 -0.6065
 8850WAT     H226953   1.357   0.497   1.766  0.4065 -0.9444 -0.3728
 8851WAT      O26954   1.829   7.208   5.145 -0.1432  0.7250 -0.3341
 8851WAT     H126955   1.752   7.178   5.195  0.1286  0.8113  0.1468
 8851WAT     H226956   1.899   7.149   5.173  0.3799  1.7341  0.5595
 8852WAT      O26957   1.327   3.728   4.001  0.0650  0.1939 -0.2003
 8852WAT     H126958   1.411   3.771   3.988  0.3558 -0.1965  0.3356
 8852WAT     H226959   1.308   3.686   3.917  1.4550 -1.5029  0.2698
 8853WAT      O26960   3.184   0.071   4.862 -0.2268 -0.3592  0.3637
 8853WAT     H126961   3.216   0.071   4.952 -2.0533  0.8264  1.0712
 8853WAT     H226962   3.262   0.083   4.809  0.6281  1.7383  1.9567
 8854WAT      O26963   2.766   1.403   0.515 -0.7217  0.1461 -0.9423
 8854WAT     H126964   2.766   1.383   0.608 -1.4718 -0.0449 -0.9779
 8854WAT     H226965   2.745   1.496   0.510 -0.0389  0.3010 -0.8925
 8855WAT      O26966   5.427   1.731   5.647  0.2400  0.3743  0.5108
 8855WAT     H126967   5.404   1.758   5.736  0.2496  1.1599  0.2858
 8855WAT     H226968   5.405   1.638   5.643 -1.1585  0.6704  0.8706
 8856WAT      O26969   0.863   0.607   2.536 -0.2596  0.1192  0.7221
 8856WAT     H126970   0.928   0.666   2.573 -0.8436 -0.5077  2.8697
 8856WAT     H226971   0.805   0.664   2.485  1.6896  0.7356 -0.9808
 8857WAT      O26972   5.532   2.262   2.251  0.6612  0.2756  0.2167
 8857WAT     H126973   5.577   2.286   2.332 -0.6346 -1.1745  1.4333
 8857WAT     H226974   5.597   2.216   2.199  1.0450 -0.3598  1.2364
 8858WAT      O26975   5.964   2.103   0.259  0.3520 -0.0078  0.6223
 8858WAT     H126976   5.894   2.082   0.197  0.8261  1.7181 -0.5767
 8858WAT     H226977   5.961   2.199   0.266  2.1246  0.0410  1.1131
 8859WAT      O26978   7.373   5.657   2.722  0.0076  0.3104  0.2186
 8859WAT     H126979   7.385   5.679   2.814  1.7752  0.3671  0.0165
 8859WAT     H226980   7.459   5.673   2.682 -0.4437 -0.6582 -1.2397
 8860WAT      O26981   4.415   3.864   3.965 -0.3263 -0.1602 -0.0047
 8860WAT     H126982   4.371   3.875   3.881  0.2038 -3.3706 -0.8628
 8860WAT     H226983   4.351   3.818   4.020 -0.5229  1.5422  1.2478
 8861WAT      O26984   1.303   2.963   6.191 -0.2343 -0.3810  0.0005
 8861WAT     H126985   1.221   2.994   6.151 -1.4332 -2.0217  1.0591
 8861WAT     H226986   1.276   2.891   6.248  1.9191 -0.6835  0.7195
 8862WAT      O26987   4.759   3.112   3.262 -0.1497  0.7338 -0.0619
 8862WAT     H126988   4.804   3.165   3.327 -0.5064  2.1201 -0.9003
 8862WAT     H226989   4.829   3.076   3.208  0.1928 -0.9542  1.4151
 8863WAT      O26990   1.829   3.382   2.301  0.1837 -0.1047 -0.0345
 8863WAT     H126991   1.873   3.317   2.356  0.7101 -1.0446 -1.5123
 8863WAT     H226992   1.849   3.466   2.342  2.8694 -0.5410 -0.2834
 8864WAT      O26993   0.965   4.295   1.776  0.2560 -0.1014  0.7136
 8864WAT     H126994   0.983   4.201   1.775  1.4125  0.1073  0.4398
 8864WAT     H226995   1.030   4.332   1.835  1.2190  0.7722 -0.8237
 8865WAT      O26996   3.849   5.037   4.664  0.3930 -0.1777  0.4262
 8865WAT     H126997   3.926   5.087   4.637 -0.2262 -0.6432 -2.4873
 8865WAT     H226998   3.874   4.945   4.648 -1.2535 -0.2501 -2.2236
 8866WAT      O26999   2.684   1.079   3.304 -0.1320  0.3388 -0.0203
 8866WAT     H127000   2.768   1.036   3.291 -0.0125  0.1229  1.3103
 8866WAT     H227001   2.705   1.163   3.342 -0.3908  1.5118 -2.2968
 8867WAT      O27002   4.314   3.148   2.786 -0.4623  0.1583 -0.0738
 8867WAT     H127003   4.266   3.090   2.727  1.7571 -0.4573 -1.3640
 8867WAT     H227004   4.322   3.097   2.867  1.3930 -1.4061 -1.1623
 8868WAT      O27005   1.769   4.059   5.528  0.3439 -0.1714  0.4150
 8868WAT     H127006   1.766   4.152   5.505 -2.4324 -0.3645 -0.3516
 8868WAT     H227007   1.778   4.058   5.623  0.9035  0.8467  0.3888
 8869WAT      O27008   1.183   2.395   5.143  0.1589 -0.1838  0.0231
 8869WAT     H127009   1.116   2.456   5.172 -0.8662 -0.8362 -0.8700
 8869WAT     H227010   1.136   2.312   5.131  0.4138  0.0297 -3.5200
 8870WAT      O27011   2.115   2.774   6.200  0.2353 -0.0691 -0.5813
 8870WAT     H127012   2.159   2.825   6.133  1.2365 -1.1979 -0.8182
 8870WAT     H227013   2.172   2.699   6.215  0.2455  0.3214  1.8097
 8871WAT      O27014   6.262   5.775   3.070  0.0548 -0.1070 -0.1501
 8871WAT     H127015   6.314   5.855   3.065  0.4180 -0.4007 -1.5429
 8871WAT     H227016   6.204   5.789   3.144  1.1849  0.7940  0.6044
 8872WAT      O27017   2.574   4.355   0.337  0.2078 -0.3002  0.7759
 8872WAT     H127018   2.560   4.284   0.401  0.0635 -0.7809  0.2196
 8872WAT     H227019   2.493   4.406   0.341  0.7642  0.5361  2.0240
 8873WAT      O27020   3.965   6.140   3.593  0.0214 -0.1687 -0.6452
 8873WAT     H127021   3.933   6.111   3.678  1.1620  1.9825  0.6142
 8873WAT     H227022   3.901   6.205   3.564  1.1949  1.3843  0.1039
 8874WAT      O27023   6.250   3.441   5.335  0.2325  0.6216 -0.6342
 8874WAT     H127024   6.222   3.432   5.426  2.2535  1.5494  0.1287
 8874WAT     H227025   6.304   3.364   5.318 -0.3338  0.3259 -1.1511
 8875WAT      O27026   5.610   5.140   1.802  0.0597  0.1916 -0.2445
 8875WAT     H127027   5.540   5.086   1.839 -0.4595  0.8924 -0.2014
 8875WAT     H227028   5.646   5.188   1.877  0.3673  0.0820 -0.3205
 8876WAT      O27029   3.679   0.225   6.114  0.2264 -0.6330 -0.0775
 8876WAT     H127030   3.665   0.158   6.181 -0.0561 -0.0235  0.4770
 8876WAT     H227031   3.684   0.307   6.162  0.5068 -0.2411 -0.7606
 8877WAT      O27032   0.716   5.260   5.339  0.0931 -0.0961  0.8041
 8877WAT     H127033   0.708   5.165   5.342 -0.3270 -0.0570  0.8538
 8877WAT     H227034   0.661   5.292   5.410 -0.0441  0.2012  0.5660
 8878WAT      O27035   6.636   1.720   2.822 -0.1602 -0.3181 -0.2276
 8878WAT     H127036   6.662   1.701   2.912  0.9933  0.8034 -0.3049
 8878WAT     H227037   6.690   1.663   2.768 -0.9569 -1.0989 -0.2292
 8879WAT      O27038   0.337   0.400   4.888  0.8070  0.0315  0.4813
 8879WAT     H127039   0.349   0.309   4.913  1.6795 -0.2504 -0.8442
 8879WAT     H227040   0.392   0.449   4.949  1.5258 -0.4783  0.2620
 8880WAT      O27041   5.892   5.075   2.691 -0.0006  0.1887  0.1655
 8880WAT     H127042   5.899   4.986   2.658  0.3911  0.4846 -0.5840
 8880WAT     H227043   5.965   5.084   2.752  0.5883  0.3026 -0.5313
 8881WAT      O27044   5.806   2.520   3.982  0.2733 -0.2368 -0.3614
 8881WAT     H127045   5.890   2.489   4.017  0.5752  0.7212 -0.2147
 8881WAT     H227046   5.743   2.454   4.010  0.3039  0.9426  2.9285
 8882WAT      O27047   6.288   0.791   0.642  0.1809 -0.3721  0.5801
 8882WAT     H127048   6.279   0.886   0.652 -1.2899 -0.5332  0.9663
 8882WAT     H227049   6.270   0.757   0.729  3.2884 -0.9034  1.1350
 8883WAT      O27050   6.520   2.571   2.833 -0.4664  0.0548 -0.4678
 8883WAT     H127051   6.529   2.485   2.792 -0.1404 -1.1616  1.9568
 8883WAT     H227052   6.601   2.616   2.810  0.6040 -1.3329  0.3957
 8884WAT      O27053   6.405   6.826   1.071  0.7323  0.1104  0.9456
 8884WAT     H127054   6.501   6.832   1.072  0.8523 -1.4443  1.0676
 8884WAT     H227055   6.377   6.884   1.142  1.4240  2.3506 -0.5072
 8885WAT      O27056   6.319   3.346   1.813  0.0921  1.1067  0.1629
 8885WAT     H127057   6.366   3.427   1.795  1.1032  0.0544 -2.4423
 8885WAT     H227058   6.283   3.320   1.728  0.4978 -1.5700  0.7286
 8886WAT      O27059   0.906   3.101   4.779 -0.0062  0.5600  0.1229
 8886WAT     H127060   0.978   3.096   4.842  0.4463  1.9582 -0.2363
 8886WAT     H227061   0.828   3.087   4.832  0.3556  1.7779  1.0462
 8887WAT      O27062   3.457   5.527   6.188 -0.0540  0.0807 -0.1543
 8887WAT     H127063   3.427   5.494   6.272  0.6926  1.1879  0.5916
 8887WAT     H227064   3.388   5.504   6.126 -1.0952  0.1339  0.9557
 8888WAT      O27065   5.889   2.880   2.588 -0.0712 -0.1339  0.5993
 8888WAT     H127066   5.843   2.964   2.585 -0.1270 -0.1927 -0.7969
 8888WAT     H227067   5.860   2.839   2.670 -2.9720 -0.4192 -0.4668
 8889WAT      O27068   0.409   3.440   3.221  0.1982 -0.6030  0.0210
 8889WAT     H127069   0.503   3.452   3.230  0.0069  0.0637  1.2068
 8889WAT     H227070   0.373   3.454   3.308 -1.2905  1.9018 -0.8713
 8890WAT      O27071   7.554   0.493   4.227 -0.2304  0.1340 -0.4354
 8890WAT     H127072   7.597   0.556   4.284  0.5763 -2.2788  1.8549
 8890WAT     H227073   7.609   0.491   4.148  0.7854  0.9450  0.2166
 8891WAT      O27074   0.253   6.498   0.997  0.2123  0.7413 -0.0478
 8891WAT     H127075   0.179   6.537   1.043  0.7965 -0.9154  2.4982
 8891WAT     H227076   0.321   6.488   1.064  2.4849  1.4498 -2.1018
 8892WAT      O27077   7.346   4.365   3.384 -0.4947  0.5298 -0.0761
 8892WAT     H127078   7.377   4.452   3.405  1.5160 -0.1531  0.0227
 8892WAT     H227079   7.277   4.347   3.447 -1.1766  2.1504 -0.3262
 8893WAT      O27080   6.096   1.832   1.550  0.4210  0.0597  0.3925
 8893WAT     H127081   6.041   1.825   1.628  0.0712 -1.0438  0.0638
 8893WAT     H227082   6.158   1.759   1.558  0.2994 -0.1411 -0.4227
 8894WAT      O27083   3.273   0.963   5.737 -0.4136  0.2488  0.3730
 8894WAT     H127084   3.275   1.056   5.716 -0.3131  0.0096 -0.6956
 8894WAT     H227085   3.330   0.955   5.813  0.9921  0.8093 -0.5892
 8895WAT      O27086   3.391   4.939   1.190 -0.0981  0.1399 -0.0197
 8895WAT     H127087   3.362   4.957   1.279 -1.4148  1.4619 -0.6718
 8895WAT     H227088   3.320   4.971   1.134  0.7090 -0.6064 -1.5542
 8896WAT      O27089   1.894   2.590   6.185  0.2784 -1.1024 -0.4268
 8896WAT     H127090   1.866   2.642   6.260 -1.2944 -1.7865 -0.5023
 8896WAT     H227091   1.959   2.644   6.140  1.5908 -0.8601  1.6502
 8897WAT      O27092   2.050   5.344   1.048  0.2501 -0.2401 -0.0493
 8897WAT     H127093   2.144   5.339   1.062  0.2842 -2.3083 -0.7796
 8897WAT     H227094   2.018   5.399   1.120  2.0469  1.0676 -0.1817
 8898WAT      O27095   5.561   6.721   0.560 -0.5361  0.1733  0.3079
 8898WAT     H127096   5.594   6.741   0.648 -2.1791 -0.9961  1.2599
 8898WAT     H227097   5.497   6.651   0.575  1.0555 -1.9998 -2.1375
 8899WAT      O27098   7.066   4.875   5.152 -0.3660  0.2564 -0.3369
 8899WAT     H127099   7.093   4.952   5.201  1.0410  0.5306 -1.4750
 8899WAT     H227100   7.038   4.812   5.219  1.0549  0.7728  0.7924
 8900WAT      O27101   2.985   1.237   1.340  0.4107 -0.2087 -0.1250
 8900WAT     H127102   2.986   1.149   1.303 -1.6777  0.3451 -1.6705
 8900WAT     H227103   2.975   1.295   1.265  0.4580  1.2911  0.9664
 8901WAT      O27104   5.440   1.100   5.676 -0.2793  0.1098 -0.1772
 8901WAT     H127105   5.480   1.014   5.669 -0.9649 -0.1977 -0.4249
 8901WAT     H227106   5.487   1.143   5.747  0.6523 -0.1400 -0.6323
 8902WAT      O27107   2.902   0.350   0.686  0.1677  0.3582  0.6504
 8902WAT     H127108   2.915   0.283   0.620  2.0445  0.6010  0.7165
 8902WAT     H227109   2.889   0.302   0.768  1.5550  0.0507  0.7079
 8903WAT      O27110   2.124   2.550   1.820  0.0967 -0.1957  0.3656
 8903WAT     H127111   2.130   2.476   1.759 -1.1005  0.3763 -0.4641
 8903WAT     H227112   2.080   2.513   1.897  1.8345 -0.9834  1.0381
 8904WAT      O27113   1.497   3.504   2.375 -0.3364 -0.0846  0.0996
 8904WAT     H127114   1.575   3.557   2.389 -0.7126  0.2323  1.0961
 8904WAT     H227115   1.457   3.497   2.462 -2.5507  1.5806 -0.6881
 8905WAT      O27116   1.893   0.374   4.868 -0.3514  0.7330  0.0211
 8905WAT     H127117   1.943   0.448   4.901  0.8149 -0.4434  0.9943
 8905WAT     H227118   1.956   0.322   4.818 -1.3078  0.7287 -1.2290
 8906WAT      O27119   2.269   5.074   5.206  0.1077  0.2794  0.9543
 8906WAT     H127120   2.279   4.982   5.181 -0.4069  0.6611 -0.8036
 8906WAT     H227121   2.183   5.078   5.248 -0.2870  0.1079  0.1867
 8907WAT      O27122   4.269   6.241   0.457  0.3335 -0.1278 -0.5779
 8907WAT     H127123   4.337   6.181   0.487 -0.2543 -0.7883 -0.5508
 8907WAT     H227124   4.317   6.314   0.418  1.1356  0.5907  1.5933
 8908WAT      O27125   1.146   0.059   6.161  0.0742 -0.6873  0.2396
 8908WAT     H127126   1.050   0.059   6.163  0.0446 -1.5165 -0.5302
 8908WAT     H227127   1.170   0.147   6.190 -0.9740  0.1904 -1.3774
 8909WAT      O27128   4.928   5.884   2.128 -0.1952 -0.3389  0.1116
 8909WAT     H127129   5.000   5.908   2.186 -0.9615 -1.2231  1.4807
 8909WAT     H227130   4.926   5.788   2.131 -0.4156 -0.3897 -1.1905
 8910WAT      O27131   3.150   1.842   4.861  0.5925 -0.3844  0.2783
 8910WAT     H127132   3.227   1.813   4.812 -0.3234 -1.3299 -0.6603
 8910WAT     H227133   3.156   1.938   4.861  0.6781 -0.3507 -1.6303
 8911WAT      O27134   6.091   5.611   5.556 -0.4100  0.1421  0.1576
 8911WAT     H127135   6.144   5.531   5.547 -2.2179 -1.2616  1.1991
 8911WAT     H227136   6.131   5.657   5.630  2.5583  1.9182 -2.3005
 8912WAT      O27137   3.513   1.911   5.660  0.0663 -0.0228  0.0214
 8912WAT     H127138   3.444   1.977   5.667  0.0853 -0.0985  1.1127
 8912WAT     H227139   3.595   1.961   5.666  0.1025 -0.0088 -0.5411
 8913WAT      O27140   3.301   4.080   1.280 -0.2851 -0.3694  0.1407
 8913WAT     H127141   3.358   4.093   1.356  1.5871  1.5662 -1.4444
 8913WAT     H227142   3.223   4.037   1.315  0.3402  0.7103  3.1986
 8914WAT      O27143   6.278   4.525   3.519 -0.4317  0.0154 -0.6374
 8914WAT     H127144   6.210   4.475   3.564  0.3831  0.1501  0.8360
 8914WAT     H227145   6.350   4.529   3.583  1.4626 -1.2170 -2.5592
 8915WAT      O27146   3.273   1.581   4.622  0.0876 -0.3700  0.6259
 8915WAT     H127147   3.333   1.615   4.688  0.7838 -2.5803  1.2268
 8915WAT     H227148   3.188   1.619   4.645  0.4818 -0.4482  2.3256
 8916WAT      O27149   4.044   1.309   5.911  0.5892 -0.7590  0.0157
 8916WAT     H127150   4.023   1.384   5.966 -0.4331 -1.1785  0.2090
 8916WAT     H227151   4.000   1.235   5.953  2.0972 -1.6080  0.1973
 8917WAT      O27152   2.037   6.007   4.156 -0.2275  0.3236 -0.5284
 8917WAT     H127153   2.112   6.064   4.141  0.6071 -0.5471  0.1824
 8917WAT     H227154   2.072   5.918   4.146 -1.4589 -0.0797 -1.4427
 8918WAT      O27155   6.102   3.284   0.648  0.2177  0.1262  0.5584
 8918WAT     H127156   6.040   3.356   0.634 -0.6890 -0.5077  1.1210
 8918WAT     H227157   6.111   3.243   0.562 -0.4107  0.0409  0.5240
 8919WAT      O27158   6.738   1.408   6.186  0.1073 -0.1900 -0.1028
 8919WAT     H127159   6.670   1.450   6.239  1.3919  0.0083  1.4958
 8919WAT     H227160   6.745   1.320   6.222 -1.3233 -1.2597 -2.2553
 8920WAT      O27161   7.167   6.033   4.371 -0.1328  0.0913 -0.4436
 8920WAT     H127162   7.174   5.959   4.311  1.5857 -1.1035  1.1295
 8920WAT     H227163   7.096   6.009   4.431 -0.8037  0.5905 -1.0100
 8921WAT      O27164   2.465   4.714   1.167 -0.2204  0.0159 -0.1098
 8921WAT     H127165   2.437   4.671   1.248  1.7143 -1.9418 -0.3761
 8921WAT     H227166   2.509   4.794   1.197 -0.4236 -0.1638  0.7084
 8922WAT      O27167   6.665   6.798   3.281  0.5409 -0.1296 -0.0238
 8922WAT     H127168   6.652   6.839   3.366 -1.5120  0.1921 -0.4406
 8922WAT     H227169   6.760   6.793   3.271  0.8377 -0.4944  2.4049
 8923WAT      O27170   3.263   6.321   1.521 -0.0563 -0.4555  0.1727
 8923WAT     H127171   3.349   6.345   1.485  0.6069 -1.9399  0.6468
 8923WAT     H227172   3.282   6.246   1.578 -1.8355 -1.6981 -0.7594
 8924WAT      O27173   4.355   2.544   2.131  0.6888 -0.1158 -0.4347
 8924WAT     H127174   4.337   2.608   2.062 -1.5377 -0.2217 -0.0424
 8924WAT     H227175   4.336   2.459   2.092 -0.2487 -0.2018  0.1503
 8925WAT      O27176   6.883   3.106   4.107  0.4957 -0.5662 -0.3610
 8925WAT     H127177   6.968   3.069   4.086  0.1356 -0.9689 -1.1413
 8925WAT     H227178   6.851   3.054   4.181  0.9386 -0.3770 -0.0322
 8926WAT      O27179   5.185   4.567   1.949  0.5521  0.6913  0.5110
 8926WAT     H127180   5.144   4.537   2.030  1.5219 -0.3119  0.6534
 8926WAT     H227181   5.279   4.567   1.968  0.8122  0.1911 -0.6948
 8927WAT      O27182   7.005   3.551   6.151 -0.0721 -0.2825 -0.1231
 8927WAT     H127183   6.924   3.596   6.173 -0.1116 -0.0552 -0.7184
 8927WAT     H227184   7.004   3.472   6.205 -0.8307 -0.4271 -0.3409
 8928WAT      O27185   0.056   1.638   4.953 -0.5439  0.6749  0.2838
 8928WAT     H127186   0.114   1.705   4.916  0.6114 -0.9139 -0.9373
 8928WAT     H227187  -0.001   1.613   4.881  0.6588 -1.3184 -0.0593
 8929WAT      O27188   4.591   0.623   3.700  0.7338 -0.3087  0.5610
 8929WAT     H127189   4.516   0.588   3.652  0.5639  0.3842  0.3103
 8929WAT     H227190   4.648   0.660   3.633  0.4578  0.7389  0.8959
 8930WAT      O27191   1.377   5.842   1.094  0.0997 -0.1150  0.3616
 8930WAT     H127192   1.413   5.860   1.181 -0.1136  0.2106  0.3843
 8930WAT     H227193   1.365   5.747   1.092  0.0921 -0.1218  0.6928
 8931WAT      O27194   4.704   7.129   0.563  0.7369 -0.3082  0.4565
 8931WAT     H127195   4.637   7.146   0.497  2.0167  0.1035 -0.8102
 8931WAT     H227196   4.662   7.071   0.627 -0.5026 -0.8933 -0.8355
 8932WAT      O27197   1.398   6.728   5.140  0.6087  0.1097  0.2484
 8932WAT     H127198   1.479   6.764   5.176  0.4414  1.7395 -0.9387
 8932WAT     H227199   1.423   6.641   5.108  2.3894  1.2615 -1.7551
 8933WAT      O27200   1.627   2.949   0.860  0.2568 -0.8019 -0.0149
 8933WAT     H127201   1.648   2.870   0.910  1.3436 -1.4265 -1.3937
 8933WAT     H227202   1.684   3.016   0.896  1.2502 -1.3202 -0.5738
 8934WAT      O27203   1.901   0.029   5.337 -0.2423  0.0491 -0.2045
 8934WAT     H127204   1.968  -0.023   5.382 -0.7707 -2.4488 -2.1144
 8934WAT     H227205   1.951   0.083   5.276  0.2316  1.1160  1.0594
 8935WAT      O27206   5.842   5.992   0.656  0.2969  0.1491 -0.3237
 8935WAT     H127207   5.903   5.920   0.638  0.1820  0.3853 -1.8207
 8935WAT     H227208   5.898   6.066   0.681  0.7148  0.4912 -2.1058
 8936WAT      O27209   0.935   0.926   3.083 -0.4906  0.4875  0.0592
 8936WAT     H127210   0.973   0.854   3.132  1.9898  1.0222 -0.9481
 8936WAT     H227211   0.893   0.981   3.150  2.1737  0.8340  1.5969
 8937WAT      O27212   5.406   4.314   5.986  0.0063 -0.0753 -0.1215
 8937WAT     H127213   5.461   4.354   5.919  0.7707 -1.0789 -0.1187
 8937WAT     H227214   5.419   4.220   5.975 -0.8879 -0.3000  0.5874
 8938WAT      O27215   1.465   4.316   4.195  0.3323  0.3499  0.3420
 8938WAT     H127216   1.494   4.348   4.110 -0.2968  2.6349  0.9164
 8938WAT     H227217   1.416   4.236   4.176 -3.0781  2.7223 -1.9879
 8939WAT      O27218   5.298   2.319   4.406 -0.2249 -0.0483 -0.6968
 8939WAT     H127219   5.298   2.392   4.468 -0.8661 -0.4263 -0.2376
 8939WAT     H227220   5.333   2.356   4.325 -0.9504  0.8806 -0.6022
 8940WAT      O27221   4.481   2.243   1.334 -0.0249  0.4896 -0.1146
 8940WAT     H127222   4.422   2.315   1.352  0.7787  1.0814  0.2399
 8940WAT     H227223   4.467   2.182   1.406  1.2636  1.6048  1.1516
 8941WAT      O27224   5.888   2.783   2.843 -0.1498  0.4378  0.0714
 8941WAT     H127225   5.975   2.797   2.882  0.7431 -1.6625 -0.9864
 8941WAT     H227226   5.829   2.834   2.898  1.6588  1.3922  1.2529
 8942WAT      O27227   4.728   1.627   1.925  0.0225  0.3509 -0.2533
 8942WAT     H127228   4.655   1.624   1.986 -0.9988 -1.0688 -1.4709
 8942WAT     H227229   4.704   1.694   1.862 -0.0071  0.2235 -0.3785
 8943WAT      O27230   2.558   3.658   3.389 -0.3540  0.0874  0.3607
 8943WAT     H127231   2.536   3.692   3.302  0.7859  1.2076  0.4758
 8943WAT     H227232   2.652   3.670   3.396 -0.4881  0.4352  1.9283
 8944WAT      O27233   6.561   0.211   3.847  0.6693  0.0009 -0.1919
 8944WAT     H127234   6.587   0.184   3.759 -0.0573 -1.4609  0.0144
 8944WAT     H227235   6.544   0.305   3.839  1.5626  0.0878 -1.3701
 8945WAT      O27236   5.067   4.546   5.276 -0.4749 -0.3619  0.1116
 8945WAT     H127237   4.974   4.532   5.255 -0.5792 -0.0156  0.3205
 8945WAT     H227238   5.065   4.600   5.355 -0.0924 -0.5059  0.2186
 8946WAT      O27239   2.527   2.558   3.913 -0.7346  0.0640 -0.1987
 8946WAT     H127240   2.606   2.557   3.967  0.5449 -0.2224 -1.9764
 8946WAT     H227241   2.457   2.580   3.973  0.5521 -0.6158  1.6386
 8947WAT      O27242   0.533   1.869   2.608 -0.0907 -0.5719  0.5724
 8947WAT     H127243   0.492   1.802   2.554 -1.5686  1.3209 -0.7960
 8947WAT     H227244   0.483   1.868   2.690 -0.1068 -1.1330  0.5585
 8948WAT      O27245   0.319   3.463   3.972 -0.1706  0.3580 -0.1630
 8948WAT     H127246   0.390   3.522   3.949  0.1511  0.3413  0.7609
 8948WAT     H227247   0.246   3.521   3.996  0.5954  0.4716  2.2018
 8949WAT      O27248   7.168   0.726   2.411  0.0572 -0.2645 -0.1731
 8949WAT     H127249   7.224   0.749   2.486 -1.2288  0.5338  0.5917
 8949WAT     H227250   7.110   0.802   2.401 -0.7549 -0.9765 -1.0594
 8950WAT      O27251   5.099   4.566   4.445 -0.3949  0.2065 -0.1305
 8950WAT     H127252   5.136   4.634   4.501  0.5353 -1.6244  1.6062
 8950WAT     H227253   5.102   4.487   4.498  1.0360 -1.7925 -2.9524
 8951WAT      O27254   6.219   4.369   0.258  0.0085  0.3578 -0.2353
 8951WAT     H127255   6.214   4.343   0.350 -0.5140 -1.6879 -0.7946
 8951WAT     H227256   6.160   4.444   0.250 -1.1994 -0.4670  0.7748
 8952WAT      O27257   0.021   1.142   4.275 -0.2570 -0.0163 -0.1966
 8952WAT     H127258   0.061   1.061   4.243 -0.4070  0.2020 -0.9398
 8952WAT     H227259   0.093   1.189   4.316 -0.1357 -0.4478  0.1018
 8953WAT      O27260   1.631   4.833   5.075 -0.5874 -0.5843 -0.2001
 8953WAT     H127261   1.721   4.837   5.107 -0.6616  1.5691 -0.1483
 8953WAT     H227262   1.577   4.862   5.148 -1.3174 -1.5641 -0.3290
 8954WAT      O27263   6.218   6.142   3.947  0.2387 -0.0455 -0.2221
 8954WAT     H127264   6.236   6.214   3.888 -1.1333 -0.4343 -1.1769
 8954WAT     H227265   6.165   6.181   4.017 -1.2895 -0.2440 -1.2133
 8955WAT      O27266   4.931   6.439   3.092  0.2313 -0.4706  0.3107
 8955WAT     H127267   5.016   6.401   3.070  1.1992  1.5781  0.1969
 8955WAT     H227268   4.868   6.390   3.041  1.5859 -0.8141 -1.1014
 8956WAT      O27269   6.094   1.943   2.375  0.0266 -0.3510  0.2351
 8956WAT     H127270   6.168   1.999   2.352  0.1344  0.3981  2.2184
 8956WAT     H227271   6.134   1.868   2.420 -0.3016 -0.8041 -0.2218
 8957WAT      O27272   2.858   6.713   3.207  0.3568  0.0957 -0.5546
 8957WAT     H127273   2.910   6.632   3.206 -0.6663 -0.6144 -2.4846
 8957WAT     H227274   2.921   6.782   3.226  1.4948 -1.0033 -0.1794
 8958WAT      O27275   4.929   6.748   0.675  0.3909 -0.3193 -0.3262
 8958WAT     H127276   4.898   6.661   0.650 -1.3615  0.3450 -0.5936
 8958WAT     H227277   4.898   6.806   0.605  0.5723  0.6833  0.4001
 8959WAT      O27278   1.814   3.245   4.641  0.0916  0.3140  0.0473
 8959WAT     H127279   1.776   3.273   4.724  0.0631  2.4549 -0.6310
 8959WAT     H227280   1.824   3.150   4.650 -1.8707  0.1910  1.6846
 8960WAT      O27281   6.591   2.886   2.674 -0.4082 -0.0368  0.2689
 8960WAT     H127282   6.677   2.921   2.697 -0.6781  2.3998 -1.9689
 8960WAT     H227283   6.529   2.946   2.715 -0.9853 -0.2668 -0.2585
 8961WAT      O27284   5.484   4.390   5.560 -0.2024 -0.1041  0.3642
 8961WAT     H127285   5.530   4.421   5.638  1.7134 -2.2736  0.1808
 8961WAT     H227286   5.425   4.322   5.593 -0.1124 -0.3340  0.0529
 8962WAT      O27287   6.745   2.396   1.428  0.3438 -0.2155  0.2985
 8962WAT     H127288   6.784   2.475   1.391 -0.4455  0.1691  0.2585
 8962WAT     H227289   6.793   2.324   1.386  1.2473  0.2323  0.5304
 8963WAT      O27290   1.004   3.321   1.751  0.1596  0.3303 -0.0000
 8963WAT     H127291   0.942   3.326   1.824 -0.3211  0.1311 -0.3908
 8963WAT     H227292   1.065   3.393   1.767 -2.0766  2.6855 -1.3341
 8964WAT      O27293   6.493   6.931   6.240  0.2239 -0.1440  0.5416
 8964WAT     H127294   6.576   6.952   6.284 -0.2387  0.3652  1.1877
 8964WAT     H227295   6.426   6.965   6.298 -0.4075  0.9162 -0.7660
 8965WAT      O27296   3.695   2.006   4.839  0.0088  0.2064  0.6146
 8965WAT     H127297   3.611   2.032   4.878 -0.2572 -0.7024  0.6758
 8965WAT     H227298   3.760   2.059   4.884 -0.5648  1.2086  0.2937
 8966WAT      O27299   6.190   3.992   3.915 -0.0877  0.2926  0.5082
 8966WAT     H127300   6.151   3.943   3.842  0.0357  1.3811 -0.3184
 8966WAT     H227301   6.222   3.924   3.975 -0.8155 -0.6246 -0.1041
 8967WAT      O27302   2.192   4.290   2.358  0.8736  0.3254 -0.1053
 8967WAT     H127303   2.237   4.310   2.276  1.0270 -2.3435 -0.7658
 8967WAT     H227304   2.262   4.269   2.419  0.6892  0.7043  0.2398
 8968WAT      O27305   7.354   5.943   5.942 -0.2394  0.0182  0.6375
 8968WAT     H127306   7.389   5.873   5.998 -0.2621  0.1054  0.7600
 8968WAT     H227307   7.342   6.017   6.001 -1.9359 -0.4229  0.8953
 8969WAT      O27308   5.287   1.620   0.972 -0.3079  0.6116  0.4655
 8969WAT     H127309   5.270   1.634   0.879 -0.8112 -0.7832  0.3155
 8969WAT     H227310   5.307   1.526   0.979 -0.6681  0.6082  1.8160
 8970WAT      O27311   1.960   0.045   4.636  0.0544  0.0907  0.2761
 8970WAT     H127312   1.888   0.054   4.572 -0.1023  0.1964  0.4640
 8970WAT     H227313   1.958  -0.047   4.662  1.0159 -0.2963 -0.9076
 8971WAT      O27314   1.469   1.079   2.227  0.2306 -0.2952 -0.2545
 8971WAT     H127315   1.552   1.070   2.182  0.9716 -1.6917  1.2675
 8971WAT     H227316   1.485   1.146   2.294  0.0278 -0.3412 -0.1590
 8972WAT      O27317   0.991   6.302   0.266  0.4462 -0.6605  0.3233
 8972WAT     H127318   0.934   6.310   0.343 -0.8465 -1.6267 -0.4868
 8972WAT     H227319   1.073   6.345   0.292 -0.4462  0.2828  1.7286
 8973WAT      O27320   6.230   4.028   1.876  0.1784  0.3033  0.5560
 8973WAT     H127321   6.314   3.986   1.893  0.0892  0.7043  2.2307
 8973WAT     H227322   6.245   4.121   1.895 -0.4460  0.5079  0.0905
 8974WAT      O27323   3.027   4.459   0.448  0.4529  0.6658  0.5336
 8974WAT     H127324   2.980   4.472   0.365  0.7625  1.5617  0.4824
 8974WAT     H227325   2.982   4.516   0.510  1.3056  1.3548  0.5410
 8975WAT      O27326   1.661   1.778   0.367  0.1116 -0.0450  0.2313
 8975WAT     H127327   1.669   1.819   0.281  1.0451 -3.0562 -1.2561
 8975WAT     H227328   1.747   1.789   0.407 -0.2151  1.0341  0.6855
 8976WAT      O27329   2.473   2.057   5.012 -0.1493 -0.5823 -0.4148
 8976WAT     H127330   2.468   2.148   4.983 -1.5054  0.2434  2.1410
 8976WAT     H227331   2.539   2.058   5.082 -0.9024 -1.3437  0.3194
 8977WAT      O27332   6.531   4.896   2.319  0.1811 -0.5173 -0.7318
 8977WAT     H127333   6.532   4.834   2.392 -0.9108  0.1267 -0.1346
 8977WAT     H227334   6.565   4.978   2.356 -1.4228  0.1274 -0.6089
 8978WAT      O27335   5.499   0.791   5.333 -0.0282  0.1208  0.4894
 8978WAT     H127336   5.487   0.886   5.327  0.1860  0.0950 -0.4958
 8978WAT     H227337   5.434   0.763   5.396 -0.6074  0.8325  0.2241
 8979WAT      O27338   3.860   1.061   4.374  0.6057  0.1567  0.0178
 8979WAT     H127339   3.944   1.039   4.332  2.0194 -1.6179  3.4215
 8979WAT     H227340   3.811   0.979   4.373 -0.3783  0.7364 -0.2983
 8980WAT      O27341   7.346   2.583   5.383  0.3195  0.0557  0.2089
 8980WAT     H127342   7.333   2.578   5.478 -1.2931  0.2847  0.0214
 8980WAT     H227343   7.439   2.564   5.371  0.6163  0.3198  1.8579
 8981WAT      O27344   4.142   6.478   4.577 -0.0698 -0.3166  0.0987
 8981WAT     H127345   4.207   6.428   4.526 -0.8223 -0.1044 -1.1071
 8981WAT     H227346   4.172   6.469   4.668 -0.1956 -3.0336 -0.0218
 8982WAT      O27347   4.733   1.678   5.033  0.0446  0.4246 -0.0622
 8982WAT     H127348   4.681   1.641   5.103  1.0926  0.4928  0.7877
 8982WAT     H227349   4.683   1.661   4.953  0.2517 -2.4317  0.3064
 8983WAT      O27350   1.670   0.998   3.800  0.1497  0.0759 -0.0032
 8983WAT     H127351   1.749   1.053   3.801 -0.9108  1.6689  0.0559
 8983WAT     H227352   1.597   1.061   3.798 -1.1277 -1.3317 -2.2577
 8984WAT      O27353   2.260   7.001   1.033  0.4646 -0.0533  0.2965
 8984WAT     H127354   2.190   6.961   1.084  0.6298 -0.2066  0.4077
 8984WAT     H227355   2.323   7.031   1.098  0.7510 -0.3884  0.1791
 8985WAT      O27356   7.042   6.771   5.042 -0.2752 -0.2276 -0.3858
 8985WAT     H127357   7.005   6.837   4.984  0.9752 -0.5379 -1.5905
 8985WAT     H227358   6.966   6.725   5.078 -1.1787  1.8926  0.5838
 8986WAT      O27359   2.105   6.860   3.686  0.4915  0.0252 -0.6287
 8986WAT     H127360   2.017   6.888   3.713  0.5416 -1.5960  1.4785
 8986WAT     H227361   2.150   6.941   3.662 -1.0132  1.0918 -0.0291
 8987WAT      O27362   2.668   5.888   0.805 -0.1283  0.0406 -0.1697
 8987WAT     H127363   2.655   5.840   0.887  1.2496  2.0941  1.3556
 8987WAT     H227364   2.623   5.971   0.817  1.3212  0.9844 -0.8661
 8988WAT      O27365   7.538   4.588   0.164 -0.6157 -0.2821 -0.7749
 8988WAT     H127366   7.601   4.522   0.136 -0.2192  0.8879 -2.8767
 8988WAT     H227367   7.483   4.602   0.087  1.9126  4.7370 -2.0792
 8989WAT      O27368   5.479   3.432   3.218  0.2302 -0.1674  0.0221
 8989WAT     H127369   5.452   3.508   3.270 -2.2219 -1.0696  0.2418
 8989WAT     H227370   5.567   3.412   3.248  0.4083  1.7401  0.9345
 8990WAT      O27371   2.988   3.963   0.634  0.4767 -0.0508  0.2893
 8990WAT     H127372   3.027   3.893   0.687  0.8175 -0.0772  0.0073
 8990WAT     H227373   3.035   4.042   0.659 -0.6106  0.2842  1.3721
 8991WAT      O27374   6.762   5.162   1.439  0.2269  0.0635 -0.0444
 8991WAT     H127375   6.851   5.182   1.467  0.3578  0.6353 -0.8549
 8991WAT     H227376   6.735   5.237   1.387 -0.7826 -0.0442  0.2968
 8992WAT      O27377   5.231   2.491   0.336  0.4068 -0.4164 -0.2937
 8992WAT     H127378   5.306   2.549   0.325 -0.7954  0.6701 -4.5533
 8992WAT     H227379   5.269   2.402   0.334  1.6904  0.1188 -1.0420
 8993WAT      O27380   5.457   5.550   1.820  0.3808  0.0685 -0.1531
 8993WAT     H127381   5.439   5.625   1.763 -0.9809  0.0557  0.2222
 8993WAT     H227382   5.455   5.586   1.908 -4.7984 -0.9424  0.4955
 8994WAT      O27383   4.350   0.528   4.647 -0.2813  0.2386  0.2941
 8994WAT     H127384   4.266   0.481   4.647  0.5607 -1.3448 -1.0361
 8994WAT     H227385   4.391   0.504   4.730 -0.0708 -1.0306 -0.1600
 8995WAT      O27386   5.399   3.319   5.238 -0.1950  0.1571  0.3198
 8995WAT     H127387   5.447   3.264   5.175 -1.1780 -0.9265  0.4837
 8995WAT     H227388   5.444   3.404   5.234  0.5327 -0.2487 -0.9287
 8996WAT      O27389   0.114   4.423   0.223 -0.1374 -0.1845 -0.2694
 8996WAT     H127390   0.192   4.477   0.227 -0.0178 -0.3899  0.3255
 8996WAT     H227391   0.097   4.398   0.314 -0.7326 -0.3697 -0.4241
 8997WAT      O27392   6.251   2.157   0.754 -0.1560 -0.0931  0.0322
 8997WAT     H127393   6.228   2.083   0.698 -1.4619 -0.4641  1.0137
 8997WAT     H227394   6.247   2.122   0.843  2.2629  0.3906  0.3896
 8998WAT      O27395   1.063   3.991   0.543  0.0359  0.3107  0.2271
 8998WAT     H127396   0.992   4.054   0.559  0.2296  0.6645 -0.2896
 8998WAT     H227397   1.070   3.987   0.448  1.7837  1.4934  0.2527
 8999WAT      O27398   0.191   1.216   3.971  0.5672  0.2385  0.3004
 8999WAT     H127399   0.138   1.289   4.004 -2.2826 -1.2421 -0.6529
 8999WAT     H227400   0.269   1.216   4.026 -0.3697  2.6387  1.7645
 9000WAT      O27401   6.584   6.913   2.065 -0.4211 -0.5058  0.3575
 9000WAT     H127402   6.592   6.891   2.157  1.4692 -0.5413  0.2049
 9000WAT     H227403   6.673   6.918   2.032 -1.0137  0.4502 -1.2618
 9001WAT      O27404   7.445   4.808   1.349 -0.2432 -0.8954  1.0159
 9001WAT     H127405   7.397   4.814   1.431  3.1794  1.1770  3.1197
 9001WAT     H227406   7.491   4.725   1.354 -1.6821 -1.7906  0.0830
 9002WAT      O27407   5.390   7.097   1.016 -0.1835 -0.2751 -0.3949
 9002WAT     H127408   5.406   7.109   1.110  1.3334 -0.8191 -0.5556
 9002WAT     H227409   5.359   7.006   1.009  1.3642 -0.8070 -0.5819
 9003WAT      O27410   4.278   6.487   3.025  0.2278  0.1632 -0.2538
 9003WAT     H127411   4.271   6.562   3.084 -1.0603  0.3522 -0.6270
 9003WAT     H227412   4.256   6.411   3.079 -0.7839  0.3176 -0.4432
 9004WAT      O27413   0.749   5.770   0.180 -0.0090 -0.4950 -0.2609
 9004WAT     H127414   0.701   5.837   0.229  1.0660 -0.0545  0.2301
 9004WAT     H227415   0.814   5.819   0.129 -1.6446 -0.8522 -2.8635
 9005WAT      O27416   4.361   5.401   0.570 -0.0404  0.3445  0.3177
 9005WAT     H127417   4.401   5.338   0.631  3.5976  1.0390 -1.1117
 9005WAT     H227418   4.399   5.485   0.594  1.4297  0.6632 -2.6762
 9006WAT      O27419   5.257   6.961   5.706 -0.4502  0.8162  0.0861
 9006WAT     H127420   5.254   6.867   5.726  1.1162  0.5275 -0.8335
 9006WAT     H227421   5.165   6.987   5.697 -0.8934 -0.8824 -0.6838
 9007WAT      O27422   1.295   6.799   4.445  0.1481  0.1760 -0.4180
 9007WAT     H127423   1.324   6.710   4.425 -0.6112  0.4787 -3.2878
 9007WAT     H227424   1.370   6.855   4.424  0.0663  0.3501 -0.2546
 9008WAT      O27425   1.041   4.015   1.782  0.4856  0.4693  0.4515
 9008WAT     H127426   1.086   4.001   1.865  0.8043  1.3377  0.4327
 9008WAT     H227427   1.097   3.973   1.716  1.0842  1.1994  0.4776
 9009WAT      O27428   2.049   5.657   1.002 -0.4618 -0.2620 -0.0888
 9009WAT     H127429   2.028   5.578   0.952 -1.7288 -0.0096  0.0103
 9009WAT     H227430   1.987   5.722   0.970 -1.3373 -0.0975  1.8133
 9010WAT      O27431   1.976   2.076   1.538  0.1403 -0.4088 -0.4423
 9010WAT     H127432   1.940   2.163   1.553 -0.4200 -0.9351  1.5481
 9010WAT     H227433   1.902   2.016   1.551  0.4467 -1.1919 -2.0620
 9011WAT      O27434   2.376   6.705   2.151  0.1840 -0.4414 -0.0853
 9011WAT     H127435   2.334   6.620   2.167  0.0946 -0.5194 -0.7209
 9011WAT     H227436   2.466   6.693   2.181  0.5949 -1.2456 -1.5366
 9012WAT      O27437   7.603   5.530   4.318 -0.4383 -0.7312 -0.2334
 9012WAT     H127438   7.676   5.575   4.276  0.4234 -1.6428  0.2289
 9012WAT     H227439   7.591   5.451   4.266 -0.8048 -0.7963 -0.0505
 9013WAT      O27440   5.365   5.570   1.491 -0.0374  0.1988  0.3765
 9013WAT     H127441   5.315   5.566   1.409  0.1850  0.6238  0.2151
 9013WAT     H227442   5.303   5.545   1.559 -0.0144 -0.9515 -0.0055
 9014WAT      O27443   6.314   7.162   1.039 -0.5710 -0.1086  0.1890
 9014WAT     H127444   6.324   7.246   0.996 -2.2144  0.3377  0.6285
 9014WAT     H227445   6.264   7.108   0.978  0.1129 -0.6480  0.0849
 9015WAT      O27446   4.520   1.422   1.530  0.2248 -1.1798 -0.5385
 9015WAT     H127447   4.511   1.328   1.520 -1.2472 -1.0694 -0.3920
 9015WAT     H227448   4.609   1.434   1.563  0.2697 -2.5483 -0.1187
 9016WAT      O27449   5.871   2.056   0.521  0.4994  0.0218 -0.0122
 9016WAT     H127450   5.938   2.065   0.453 -0.7797 -2.0077 -1.6411
 9016WAT     H227451   5.911   2.095   0.599  2.7171  0.8077 -1.4521
 9017WAT      O27452   7.497   3.045   6.070 -0.2194  0.2627  0.4121
 9017WAT     H127453   7.443   2.996   6.008  0.1723  2.6241 -1.9714
 9017WAT     H227454   7.587   3.028   6.043 -0.0320  1.1986  0.4161
 9018WAT      O27455   0.244   0.385   6.233 -0.0126  0.2676  0.6853
 9018WAT     H127456   0.166   0.389   6.287  0.7251 -1.0056  1.9054
 9018WAT     H227457   0.218   0.334   6.157 -1.7554  4.0349 -1.5688
 9019WAT      O27458   0.525   2.152   2.251  0.2374  0.1205 -0.6991
 9019WAT     H127459   0.507   2.221   2.315  0.1251 -1.0740  0.5944
 9019WAT     H227460   0.565   2.082   2.302  1.1909 -0.4413 -2.1443
 9020WAT      O27461   6.792   6.702   2.464  0.4527  0.2757 -0.0544
 9020WAT     H127462   6.713   6.653   2.443 -0.6240  1.3196  1.3345
 9020WAT     H227463   6.864   6.644   2.437 -0.7649 -0.9889 -0.7309
 9021WAT      O27464   2.781   5.196   0.843 -0.4665 -0.1821  0.0485
 9021WAT     H127465   2.770   5.150   0.926 -0.0245 -0.3062  0.0401
 9021WAT     H227466   2.692   5.219   0.816 -0.8587 -2.2694 -0.6524
 9022WAT      O27467   3.924   1.335   0.667 -0.4281  0.4978  0.1212
 9022WAT     H127468   3.937   1.374   0.753 -0.0225  1.8516 -0.5270
 9022WAT     H227469   3.866   1.396   0.621 -0.9534 -0.4015 -0.4445
 9023WAT      O27470   3.191   5.003   1.035  0.1555 -0.4724 -0.3026
 9023WAT     H127471   3.119   4.989   1.097  0.8276 -0.2292  0.5464
 9023WAT     H227472   3.148   5.006   0.949 -0.9236  0.1873  0.2362
 9024WAT      O27473   3.023   6.205   5.265  0.3007  0.6803  0.8094
 9024WAT     H127474   3.028   6.244   5.352  0.5582  0.5192  0.8663
 9024WAT     H227475   3.100   6.236   5.219  0.0756  0.9027  0.5796
 9025WAT      O27476   3.728   5.842   2.596 -0.5618 -0.0931 -0.7516
 9025WAT     H127477   3.721   5.793   2.678 -0.4200  0.1399 -0.5983
 9025WAT     H227478   3.748   5.775   2.530  0.0007 -0.1992 -0.4853
 9026WAT      O27479   5.741   0.407   2.731  0.2582  0.4252  0.4386
 9026WAT     H127480   5.741   0.489   2.681 -2.3031  0.1490 -0.1851
 9026WAT     H227481   5.688   0.427   2.808  0.5298 -0.3305  0.8267
 9027WAT      O27482   6.811   6.319   2.935  0.5676 -0.5521  0.4497
 9027WAT     H127483   6.730   6.272   2.914 -0.7254  1.3743  0.8607
 9027WAT     H227484   6.879   6.270   2.889 -0.8526 -2.0369 -0.2082
 9028WAT      O27485   4.355   1.624   4.124  0.0166  0.2038 -0.1248
 9028WAT     H127486   4.361   1.643   4.218  1.9285  1.4803 -0.4298
 9028WAT     H227487   4.416   1.686   4.084  0.3322 -1.2778 -2.0799
 9029WAT      O27488   5.073   3.149   2.190  0.5233 -0.6107 -0.4909
 9029WAT     H127489   5.048   3.131   2.281  0.3147 -0.8062 -0.5860
 9029WAT     H227490   5.167   3.134   2.188  0.7419  0.5891 -0.0201
 9030WAT      O27491   4.702   0.985   2.355 -0.1279 -0.0031 -0.0921
 9030WAT     H127492   4.714   1.051   2.423 -2.4236 -0.4883  0.8798
 9030WAT     H227493   4.636   0.926   2.391 -3.0552  0.8909 -3.5424
 9031WAT      O27494   0.106   2.645   0.230  0.5850 -0.3486  0.0103
 9031WAT     H127495   0.084   2.677   0.317 -0.0613 -0.2055 -0.1957
 9031WAT     H227496   0.138   2.556   0.244  1.2118 -0.0586  0.4623
 9032WAT      O27497   4.153   0.673   0.319  0.1847 -0.0307  0.2082
 9032WAT     H127498   4.086   0.628   0.370 -0.3026 -1.8526 -1.8734
 9032WAT     H227499   4.114   0.757   0.295 -0.9312 -0.6086 -0.0471
 9033WAT      O27500   1.368   4.627   2.827  0.6211  0.1034 -0.0016
 9033WAT     H127501   1.382   4.536   2.854  0.1813  0.4362  1.4122
 9033WAT     H227502   1.342   4.672   2.907  2.3142  1.8064 -0.3584
 9034WAT      O27503   7.605   4.138   0.727 -0.2866  0.4208  0.0165
 9034WAT     H127504   7.637   4.057   0.767 -1.5920  0.5758  1.4958
 9034WAT     H227505   7.611   4.203   0.798 -1.5515  1.0035 -0.3933
 9035WAT      O27506   2.373   4.847   4.002 -0.0431 -0.2419  0.5007
 9035WAT     H127507   2.282   4.872   4.016  0.2646  0.3317  1.5430
 9035WAT     H227508   2.388   4.775   4.064  0.3537 -0.0107  0.6749
 9036WAT      O27509   5.361   1.913   3.940 -0.1715  0.1627  0.1807
 9036WAT     H127510   5.316   1.925   4.024 -0.3751  2.5454 -0.2170
 9036WAT     H227511   5.445   1.957   3.952 -0.0085  0.1072 -0.7094
 9037WAT      O27512   2.149   3.737   0.136 -0.3290  0.2311  0.2959
 9037WAT     H127513   2.066   3.696   0.113 -0.4755  1.3198 -1.2488
 9037WAT     H227514   2.161   3.715   0.228 -2.3050  0.0211  0.5553
 9038WAT      O27515   1.143   0.474   4.321  0.0589 -0.4553  0.2590
 9038WAT     H127516   1.119   0.565   4.301  2.5702  0.0897 -0.6986
 9038WAT     H227517   1.062   0.434   4.353 -1.3823  1.8226 -0.3003
 9039WAT      O27518   3.712   2.577   3.018 -0.0295  0.2910 -0.2501
 9039WAT     H127519   3.682   2.578   3.109  1.3418  0.3441  0.2303
 9039WAT     H227520   3.726   2.484   2.998  0.2695  0.3204 -0.1875
 9040WAT      O27521   6.359   0.185   5.646 -0.8027 -0.2824 -0.0626
 9040WAT     H127522   6.398   0.258   5.694 -0.9436  0.5070 -1.1093
 9040WAT     H227523   6.274   0.219   5.617 -1.6684 -1.4683  0.9187
 9041WAT      O27524   1.328   6.294   3.042  0.2036 -0.5309  0.1188
 9041WAT     H127525   1.321   6.277   3.136  0.8413  0.3905  0.3484
 9041WAT     H227526   1.390   6.367   3.035  1.8578 -1.9743 -1.1551
 9042WAT      O27527   6.658   2.653   2.015  0.5791 -0.4141  0.0559
 9042WAT     H127528   6.651   2.572   2.066  2.6561 -0.1502  0.8406
 9042WAT     H227529   6.631   2.722   2.075  2.0960 -0.2102  0.5644
 9043WAT      O27530   2.341   2.671   4.948 -0.2734 -0.2393  0.0881
 9043WAT     H127531   2.410   2.622   4.993 -1.0047  0.3154  1.9240
 9043WAT     H227532   2.373   2.761   4.946  0.5147 -0.4992 -2.1634
 9044WAT      O27533   3.304   5.633   3.923 -0.1188  0.0442 -0.5118
 9044WAT     H127534   3.300   5.556   3.866 -1.0096  0.4301 -1.0085
 9044WAT     H227535   3.374   5.615   3.985 -0.1831 -1.0728 -0.7524
 9045WAT      O27536   0.879   6.841   4.452  0.3533 -0.5522  0.1809
 9045WAT     H127537   0.859   6.888   4.533  3.2847 -0.5230  1.0205
 9045WAT     H227538   0.877   6.749   4.477 -0.4638 -0.6427 -0.1902
 9046WAT      O27539   1.971   0.896   3.972  0.0268  0.2305 -0.5155
 9046WAT     H127540   1.888   0.849   3.983 -0.0222  0.7794  2.3486
 9046WAT     H227541   1.946   0.988   3.977  0.8519  0.3999  1.8457
 9047WAT      O27542   3.024   6.164   1.536  0.0800  0.7069  0.0771
 9047WAT     H127543   3.105   6.212   1.553  0.1275  0.2390  1.2576
 9047WAT     H227544   3.013   6.168   1.441  1.6646  0.4893 -0.1377
 9048WAT      O27545   1.026   1.783   0.075  0.0266  0.0203  0.0018
 9048WAT     H127546   1.068   1.730   0.143  0.1900 -1.3125 -1.1025
 9048WAT     H227547   0.933   1.782   0.100  0.2491  0.6461  0.9114
 9049WAT      O27548   6.125   0.194   0.790  0.3482  0.6140  0.3391
 9049WAT     H127549   6.081   0.149   0.862 -0.5950 -1.3003 -1.3471
 9049WAT     H227550   6.216   0.202   0.819  0.2730 -1.2803  1.2496
 9050WAT      O27551   7.058   2.577   2.086 -0.0387  0.0771  0.5064
 9050WAT     H127552   7.046   2.638   2.159 -1.1607  1.6472 -0.9052
 9050WAT     H227553   7.080   2.633   2.011 -0.5685 -1.2911 -0.7249
 9051WAT      O27554   1.291   0.455   5.987  0.2563 -0.0382 -0.5079
 9051WAT     H127555   1.271   0.546   6.012  0.5089 -0.4355  1.2903
 9051WAT     H227556   1.297   0.409   6.070 -1.1433 -1.9943 -1.4215
 9052WAT      O27557   4.912   3.048   4.116 -0.2888 -0.2019 -0.0614
 9052WAT     H127558   4.954   3.133   4.109  1.1496 -0.8678  0.0374
 9052WAT     H227559   4.968   2.989   4.065 -0.0013 -1.4980  1.6329
 9053WAT      O27560   5.496   4.793   4.727  0.7878  0.1011 -0.4718
 9053WAT     H127561   5.575   4.799   4.672 -0.5482  0.1885 -2.5106
 9053WAT     H227562   5.448   4.873   4.708  0.9949  0.9313  2.1491
 9054WAT      O27563   5.485   2.718   5.934 -0.0320 -0.4783  0.3956
 9054WAT     H127564   5.472   2.625   5.917 -0.0135 -0.3298 -0.5056
 9054WAT     H227565   5.412   2.761   5.890  0.1562 -0.0420  0.5013
 9055WAT      O27566   0.736   0.507   5.757  0.0075  0.1429 -0.3402
 9055WAT     H127567   0.675   0.564   5.710 -0.1170 -1.2321 -1.9200
 9055WAT     H227568   0.809   0.564   5.780 -1.6052  1.7197  1.1959
 9056WAT      O27569   0.108   3.059   5.871  0.3536  0.3999  0.0310
 9056WAT     H127570   0.181   2.997   5.875  0.7577  0.8703  0.0520
 9056WAT     H227571   0.150   3.145   5.873 -0.2121  0.6740  0.1869
 9057WAT      O27572   5.190   2.178   1.795 -0.0592 -0.1352 -0.0545
 9057WAT     H127573   5.162   2.146   1.881  0.0577  0.2478  0.1272
 9057WAT     H227574   5.273   2.133   1.780 -1.2279 -2.0971 -1.0685
 9058WAT      O27575   4.674   0.996   1.017 -0.1757  0.2456  0.3565
 9058WAT     H127576   4.750   0.941   1.035  0.5079  1.5724  1.7192
 9058WAT     H227577   4.619   0.987   1.095 -1.4031 -0.6113 -0.5676
 9059WAT      O27578   5.956   1.947   3.144  0.3781  0.6542 -0.1739
 9059WAT     H127579   5.990   1.930   3.056 -0.9737  0.5743 -0.7083
 9059WAT     H227580   5.979   1.868   3.194  2.7079  1.4184  0.0755
 9060WAT      O27581   2.742   4.857   4.398  0.0906  0.1403 -0.7006
 9060WAT     H127582   2.830   4.850   4.435 -0.4847 -0.7274  0.5970
 9060WAT     H227583   2.733   4.780   4.342  0.4477  0.6755 -1.4976
 9061WAT      O27584   4.036   5.658   3.572 -0.3525 -0.3276  0.0715
 9061WAT     H127585   4.102   5.727   3.558 -0.1940 -0.8281 -1.9053
 9061WAT     H227586   3.993   5.683   3.654  0.0646  1.8214 -0.2982
 9062WAT      O27587   6.103   6.103   4.576 -0.1521  0.7402  0.0401
 9062WAT     H127588   6.019   6.098   4.530  0.2582  1.0559 -0.7800
 9062WAT     H227589   6.086   6.157   4.653 -1.1080 -0.6772  0.8594
 9063WAT      O27590   1.764   5.268   2.972 -0.0640 -0.3474 -0.1595
 9063WAT     H127591   1.681   5.257   3.019 -0.3280 -0.4895 -0.6415
 9063WAT     H227592   1.826   5.299   3.038 -0.0719 -1.8295  0.5752
 9064WAT      O27593   4.662   2.773   2.496 -0.3053 -0.1198 -0.5125
 9064WAT     H127594   4.591   2.801   2.439  0.2827  0.9953 -0.7439
 9064WAT     H227595   4.630   2.694   2.538 -1.2611 -0.2303 -1.4052
 9065WAT      O27596   7.260   3.226   4.376  0.1818 -0.0626 -0.5357
 9065WAT     H127597   7.352   3.198   4.371  0.1758 -0.1841 -0.0497
 9065WAT     H227598   7.220   3.166   4.439  0.0352  0.6695  0.0990
 9066WAT      O27599   3.281   3.167   3.238  0.0123 -0.4648  0.2298
 9066WAT     H127600   3.207   3.115   3.205  1.2029 -1.2053 -1.4583
 9066WAT     H227601   3.242   3.248   3.270 -1.7137 -1.6251  1.1786
 9067WAT      O27602   0.254   3.671   0.235  0.5142 -0.5753 -0.2894
 9067WAT     H127603   0.300   3.726   0.297  0.3496  0.3121 -0.9386
 9067WAT     H227604   0.163   3.671   0.266  0.7336 -1.4876  0.4008
 9068WAT      O27605   6.624   6.942   0.591 -0.0640 -0.1181 -0.3772
 9068WAT     H127606   6.551   6.984   0.636 -0.9318 -0.2754 -1.5821
 9068WAT     H227607   6.660   6.881   0.655 -1.9557 -1.1321 -0.2004
 9069WAT      O27608   2.203   1.527   1.031  0.2516 -0.1498  0.2287
 9069WAT     H127609   2.120   1.573   1.031  1.2048  1.6551 -0.3323
 9069WAT     H227610   2.268   1.594   1.053  1.6715 -1.2934 -0.3072
 9070WAT      O27611   1.069   3.087   1.987  0.0848 -0.3979  0.4305
 9070WAT     H127612   1.165   3.089   1.986  0.0958 -0.8286  0.3309
 9070WAT     H227613   1.043   3.178   1.975  0.4795 -0.5258 -1.8534
 9071WAT      O27614   5.715   1.776   4.502  0.0055 -0.3284 -0.0587
 9071WAT     H127615   5.718   1.866   4.535  0.9035 -0.0712 -0.7999
 9071WAT     H227616   5.757   1.724   4.571  2.0832  0.2331 -0.8240
 9072WAT      O27617   6.034   0.361   3.290 -0.1890  0.4898 -0.8757
 9072WAT     H127618   5.996   0.417   3.222 -1.4465  1.2767  0.4134
 9072WAT     H227619   6.008   0.403   3.372 -0.6544 -1.6526  0.1324
 9073WAT      O27620   4.561   1.968   2.158 -0.0902 -0.3281 -0.3226
 9073WAT     H127621   4.532   2.030   2.092  0.0924  0.7848  0.6046
 9073WAT     H227622   4.635   1.923   2.118  1.5344  1.9697 -0.0933
 9074WAT      O27623   5.958   3.512   3.705  0.0351  0.2131 -0.4242
 9074WAT     H127624   6.015   3.571   3.655 -0.0048  0.6588  0.0421
 9074WAT     H227625   5.880   3.503   3.651  0.0931  0.4992 -0.5601
 9075WAT      O27626   5.552   0.037   3.428  0.0347 -0.0304 -0.5394
 9075WAT     H127627   5.599   0.082   3.497  0.4734 -0.2081 -0.7211
 9075WAT     H227628   5.467   0.081   3.424 -0.1028 -0.1981  0.2996
 9076WAT      O27629   6.017   3.387   2.127  0.0555  0.2165  0.6354
 9076WAT     H127630   5.964   3.310   2.150 -1.0311  0.5402 -0.6453
 9076WAT     H227631   5.978   3.458   2.178  0.2157  0.1707  0.8217
 9077WAT      O27632   6.418   1.134   5.548  0.1238 -0.2952  0.0961
 9077WAT     H127633   6.511   1.119   5.530  0.2263  0.9418 -0.5258
 9077WAT     H227634   6.415   1.151   5.642  0.2689 -2.0129  0.4395
 9078WAT      O27635   2.105   1.016   5.964 -0.0148 -0.2846  0.3920
 9078WAT     H127636   2.096   1.075   5.889  2.1059 -0.2122  0.1321
 9078WAT     H227637   2.107   0.929   5.926 -1.8198 -0.4899  0.6669
 9079WAT      O27638   3.717   5.845   1.517  0.2013  0.4296  0.6184
 9079WAT     H127639   3.669   5.775   1.562  2.2783 -0.9121  0.8610
 9079WAT     H227640   3.776   5.799   1.457  0.7895  2.0466 -0.0914
 9080WAT      O27641   6.527   4.465   6.045 -0.0724 -0.8039 -0.1447
 9080WAT     H127642   6.531   4.560   6.039 -0.3400 -0.7525  0.4856
 9080WAT     H227643   6.582   4.443   6.120 -1.0682 -1.0466  0.5275
 9081WAT      O27644   4.654   2.581   0.371  0.3378 -0.2881  0.0201
 9081WAT     H127645   4.727   2.556   0.314 -0.5569 -2.8631 -0.1688
 9081WAT     H227646   4.688   2.571   0.460  1.9587  4.4167  0.1961
 9082WAT      O27647   7.258   2.194   3.997 -0.6175  0.2254 -0.6214
 9082WAT     H127648   7.222   2.137   4.065 -0.9806 -0.6056 -1.4710
 9082WAT     H227649   7.320   2.251   4.043 -0.5476 -0.5856  0.3332
 9083WAT      O27650   1.009   1.586   3.008  0.2872 -0.2255  0.3255
 9083WAT     H127651   1.037   1.626   3.090 -0.1585 -0.3413  0.5358
 9083WAT     H227652   0.957   1.510   3.035 -0.5054  0.1719 -0.0549
 9084WAT      O27653   6.692   6.563   2.007  0.7422 -0.2436 -0.6828
 9084WAT     H127654   6.731   6.644   2.038 -1.4288 -0.2459  2.5999
 9084WAT     H227655   6.751   6.494   2.038 -0.4448 -0.1209  2.1868
 9085WAT      O27656   2.540   0.540   3.223 -0.2589 -0.0523 -0.0774
 9085WAT     H127657   2.574   0.602   3.288  0.2922  1.4009 -1.6704
 9085WAT     H227658   2.550   0.454   3.264  1.6152  0.6692  1.1185
 9086WAT      O27659   7.102   0.131   2.733 -0.1337  0.3308 -0.5253
 9086WAT     H127660   7.014   0.113   2.698 -1.0751  3.4715 -0.0716
 9086WAT     H227661   7.160   0.119   2.658 -1.0976 -0.5174 -1.1742
 9087WAT      O27662   0.039   6.807   0.083  0.2561 -0.2092 -0.1093
 9087WAT     H127663   0.068   6.859   0.158  1.3058 -1.3182  0.2772
 9087WAT     H227664  -0.022   6.744   0.120  0.2421 -0.3124 -0.3061
 9088WAT      O27665   1.455   0.476   3.016  0.1016  0.0815  0.0399
 9088WAT     H127666   1.469   0.536   3.089  0.3380 -1.2372  1.1312
 9088WAT     H227667   1.539   0.431   3.005 -0.0906 -0.1247 -0.6902
 9089WAT      O27668   0.417   6.974   3.296 -0.7511  0.0206  0.0693
 9089WAT     H127669   0.465   7.050   3.330  0.2788 -0.3851 -0.4467
 9089WAT     H227670   0.345   6.962   3.358 -0.0926  0.5394  0.9670
 9090WAT      O27671   4.661   2.201   5.504 -0.2785  0.6294 -0.0578
 9090WAT     H127672   4.636   2.281   5.551 -0.7308  0.3642  0.1530
 9090WAT     H227673   4.753   2.187   5.529 -0.4068  0.6911  0.4649
 9091WAT      O27674   6.030   3.501   3.980  0.0511 -0.4590  0.5111
 9091WAT     H127675   6.005   3.522   3.890 -0.3624  0.6239  0.8612
 9091WAT     H227676   5.981   3.563   4.034  0.8931 -0.5627  1.4347
 9092WAT      O27677   7.306   1.934   0.328 -0.6196 -0.4574  0.1612
 9092WAT     H127678   7.309   1.870   0.399  0.3381 -2.2709 -1.4463
 9092WAT     H227679   7.366   1.900   0.262 -1.9129  0.8586 -1.7843
 9093WAT      O27680   1.781   5.970   0.396 -0.6781 -1.1183  0.3017
 9093WAT     H127681   1.867   5.961   0.438 -0.3317  0.2754 -0.0562
 9093WAT     H227682   1.755   6.060   0.415 -0.9788 -0.7806 -1.5826
 9094WAT      O27683   3.154   1.173   2.665  0.0285  0.1697 -0.7527
 9094WAT     H127684   3.187   1.107   2.605 -0.6309 -0.1897 -0.7304
 9094WAT     H227685   3.182   1.256   2.626  2.4474 -0.1367  0.1624
 9095WAT      O27686   1.394   1.439   5.738  0.4327 -0.3806 -0.0020
 9095WAT     H127687   1.322   1.408   5.684 -0.3732  1.1209  0.1797
 9095WAT     H227688   1.468   1.446   5.678 -0.1021  0.0103 -0.6194
 9096WAT      O27689   2.587   1.909   2.264 -0.6925 -0.1923  0.2015
 9096WAT     H127690   2.623   1.874   2.345 -1.7621 -2.2878 -0.1514
 9096WAT     H227691   2.507   1.859   2.249 -0.3897 -0.0993 -2.2881
 9097WAT      O27692   7.647   4.306   5.430  0.4220 -0.0857  0.0454
 9097WAT     H127693   7.589   4.246   5.383 -0.4731 -0.2918  1.3502
 9097WAT     H227694   7.587   4.365   5.476  1.2857  0.9053 -0.0645
 9098WAT      O27695   2.997   3.897   5.610 -0.2831 -0.0341 -0.6366
 9098WAT     H127696   3.087   3.909   5.643  0.6299 -0.1041 -2.9173
 9098WAT     H227697   2.962   3.985   5.604 -0.6750 -0.0514  0.9533
 9099WAT      O27698   6.325   3.705   5.779  0.1412 -0.1435  0.2157
 9099WAT     H127699   6.263   3.667   5.841 -2.3396  0.8975 -1.4620
 9099WAT     H227700   6.336   3.796   5.807 -1.6693  0.5798 -1.2573
 9100WAT      O27701   4.536   2.818   0.607 -0.0418 -0.7709 -0.2499
 9100WAT     H127702   4.592   2.883   0.565 -0.2870  0.2482  0.9186
 9100WAT     H227703   4.593   2.776   0.672 -0.2193 -0.8141 -0.1207
 9101WAT      O27704   0.487   0.940   0.422  0.2062  0.5251  0.0690
 9101WAT     H127705   0.533   1.008   0.372 -0.5238  1.5354  0.7308
 9101WAT     H227706   0.435   0.989   0.486 -0.9881 -0.6253  0.0133
 9102WAT      O27707   6.060   3.187   2.797 -0.4242 -0.3366  0.3276
 9102WAT     H127708   6.052   3.201   2.891 -1.1539 -2.2453  0.5981
 9102WAT     H227709   6.083   3.273   2.761  0.6452  0.2606  2.3195
 9103WAT      O27710   3.625   2.553   2.752  0.5630 -0.4408 -0.1371
 9103WAT     H127711   3.636   2.486   2.820 -2.1826 -2.1213 -1.1886
 9103WAT     H227712   3.564   2.616   2.790  0.1149 -0.6430 -0.5109
 9104WAT      O27713   5.334   3.664   3.027 -0.2619 -0.2027 -0.2956
 9104WAT     H127714   5.344   3.660   3.122  0.4848 -1.0612 -0.3997
 9104WAT     H227715   5.418   3.697   2.995 -0.7044  0.6480 -0.6374
 9105WAT      O27716   4.034   2.264   4.472  0.2847  0.4616  0.5223
 9105WAT     H127717   3.941   2.248   4.458  0.6267 -1.0190 -0.3210
 9105WAT     H227718   4.054   2.216   4.553  0.7209 -1.0938 -0.4579
 9106WAT      O27719   6.007   6.887   3.556  0.0168 -0.2842 -0.2091
 9106WAT     H127720   6.003   6.960   3.617 -0.0103  0.3099 -0.9005
 9106WAT     H227721   6.016   6.810   3.611  0.8301  0.3031  0.5175
 9107WAT      O27722   3.667   3.129   0.792  0.1376 -0.3936  0.1568
 9107WAT     H127723   3.762   3.119   0.785  0.1672 -1.6869  1.8567
 9107WAT     H227724   3.651   3.138   0.886 -1.4866 -1.2354 -0.0117
 9108WAT      O27725   1.777   0.385   0.839  0.0758  0.3233 -0.2537
 9108WAT     H127726   1.701   0.336   0.809 -1.4862  2.8146 -0.5793
 9108WAT     H227727   1.767   0.390   0.934  0.6781 -0.5918 -0.1209
 9109WAT      O27728   5.945   4.933   4.925 -0.8663  0.0991  0.0020
 9109WAT     H127729   5.919   5.012   4.878 -0.0389 -0.6079 -1.7425
 9109WAT     H227730   6.034   4.952   4.955 -1.4032  0.5595  1.3638
 9110WAT      O27731   2.104   6.601   4.475  0.4335  0.0208 -0.4983
 9110WAT     H127732   2.131   6.536   4.411 -2.5424 -2.5542  0.6135
 9110WAT     H227733   2.042   6.657   4.428  0.2579 -0.2056 -0.5355
 9111WAT      O27734   3.086   5.167   5.831  0.7430  0.3910  0.1674
 9111WAT     H127735   3.172   5.186   5.870  0.5203  0.6529  0.5389
 9111WAT     H227736   3.025   5.174   5.904  0.4675 -0.3190  0.0046
 9112WAT      O27737   6.291   3.560   3.892 -0.6812  0.2298 -0.0337
 9112WAT     H127738   6.204   3.557   3.932 -0.6344 -1.6352 -0.0093
 9112WAT     H227739   6.350   3.580   3.965 -1.1143  2.2654 -0.1774
 9113WAT      O27740   7.649   5.846   6.028  0.0880 -0.2554 -0.1634
 9113WAT     H127741   7.627   5.815   6.116 -0.6089 -3.0073 -1.2163
 9113WAT     H227742   7.705   5.922   6.043 -0.1812 -0.5002  2.6406
 9114WAT      O27743   2.083   4.574   1.078  0.2889  0.2078 -0.2321
 9114WAT     H127744   2.091   4.590   1.172 -0.5687  0.2451 -0.1637
 9114WAT     H227745   2.147   4.634   1.039 -0.6254  1.5298  0.2229
 9115WAT      O27746   1.560   0.199   1.373  0.2752 -0.3956  0.0487
 9115WAT     H127747   1.611   0.211   1.453 -1.4974  2.4731  0.9076
 9115WAT     H227748   1.624   0.207   1.302  1.4020  0.5224  1.1152
 9116WAT      O27749   3.914   6.629   5.632 -0.0928  0.3197  0.5734
 9116WAT     H127750   4.002   6.625   5.670 -0.7999  0.3678  2.3432
 9116WAT     H227751   3.887   6.537   5.626 -0.3064  0.3429  1.0641
 9117WAT      O27752   6.678   3.069   2.305  0.3051  0.9488  0.3386
 9117WAT     H127753   6.737   3.057   2.379  0.6411  1.7825  0.2098
 9117WAT     H227754   6.592   3.084   2.345 -0.4618 -2.9258  0.5444
 9118WAT      O27755   5.058   0.861   0.378  0.2005  0.4974  0.0692
 9118WAT     H127756   5.030   0.943   0.419 -0.5952  1.3548 -2.0349
 9118WAT     H227757   5.130   0.887   0.320  0.5609 -0.4636  0.0661
 9119WAT      O27758   3.424   3.285   5.867  0.4203  0.3922  0.6166
 9119WAT     H127759   3.469   3.238   5.798 -0.2124  1.2514 -0.4274
 9119WAT     H227760   3.360   3.223   5.901 -1.2619  0.7705 -1.5820
 9120WAT      O27761   5.314   4.399   0.864  0.2628  0.2664  0.8920
 9120WAT     H127762   5.311   4.385   0.959 -1.0004  1.3098  1.0242
 9120WAT     H227763   5.254   4.471   0.848  1.0799  0.6606 -0.6189
 9121WAT      O27764   4.696   4.099   2.379 -0.4079  0.3067 -0.9240
 9121WAT     H127765   4.648   4.031   2.426  0.2064  0.1940 -0.4371
 9121WAT     H227766   4.777   4.056   2.352 -0.4812  0.5522 -1.5380
 9122WAT      O27767   5.364   0.056   3.026  0.1940  0.2488 -0.0341
 9122WAT     H127768   5.328  -0.030   3.045  0.0863  0.6058  1.4557
 9122WAT     H227769   5.453   0.038   2.993  1.0093 -0.3671  2.3346
 9123WAT      O27770   2.904   4.476   5.456  0.0102  0.8348  0.0636
 9123WAT     H127771   2.823   4.438   5.487  1.4012 -1.4905  1.0689
 9123WAT     H227772   2.943   4.517   5.533  1.2920 -0.9456  0.4276
 9124WAT      O27773   4.675   3.341   5.227 -0.1421 -0.5007 -0.1050
 9124WAT     H127774   4.686   3.400   5.301 -2.3250  0.1537 -0.2354
 9124WAT     H227775   4.732   3.378   5.159  0.5305 -0.0879  0.6594
 9125WAT      O27776   5.351   7.191   5.957  0.1610  0.2063 -0.8990
 9125WAT     H127777   5.427   7.132   5.961 -0.9041 -1.1303  1.1873
 9125WAT     H227778   5.387   7.277   5.976  1.2936 -0.2458 -0.8913
 9126WAT      O27779   6.774   3.419   5.628  0.3088 -0.2692  0.1399
 9126WAT     H127780   6.749   3.447   5.716 -0.2690 -0.5943  0.0874
 9126WAT     H227781   6.788   3.500   5.579 -0.5047 -0.0685  0.2234
 9127WAT      O27782   3.377   1.984   3.209 -0.1702  0.1771  0.3055
 9127WAT     H127783   3.458   1.987   3.260 -1.6701  1.1941  2.8010
 9127WAT     H227784   3.333   2.067   3.227 -2.0404 -0.5716 -0.4986
 9128WAT      O27785   2.907   3.629   4.539 -0.1453 -0.1912 -0.8802
 9128WAT     H127786   2.904   3.535   4.552 -2.2739 -0.1812 -1.0107
 9128WAT     H227787   2.864   3.666   4.616 -2.5470  0.4262 -2.3964
 9129WAT      O27788   7.399   2.220   1.245 -0.3580 -0.2900  0.1269
 9129WAT     H127789   7.305   2.236   1.246 -0.8750 -2.7479  2.5930
 9129WAT     H227790   7.426   2.232   1.337  1.4183 -1.2068 -0.2328
 9130WAT      O27791   7.021   2.925   1.460 -0.3882 -0.4270  0.8058
 9130WAT     H127792   6.956   2.965   1.403 -1.2450 -1.7267  0.8323
 9130WAT     H227793   7.080   2.997   1.484 -0.6731  0.3715 -0.7789
 9131WAT      O27794   7.336   3.549   3.685  0.0944 -0.2883 -0.4860
 9131WAT     H127795   7.328   3.510   3.772  1.4074  1.6063  0.5406
 9131WAT     H227796   7.430   3.565   3.674 -0.0645 -0.2806 -2.1788
 9132WAT      O27797   1.060   6.549   0.590  0.2841 -0.1670  0.1008
 9132WAT     H127798   1.004   6.611   0.637  1.2244 -0.6912  2.0184
 9132WAT     H227799   1.007   6.469   0.585  0.2119 -0.1384  0.3706
 9133WAT      O27800   0.825   2.176   1.347 -0.0328 -0.4917 -0.5251
 9133WAT     H127801   0.862   2.096   1.383  1.0716  0.0246 -0.4810
 9133WAT     H227802   0.795   2.226   1.423 -1.8713 -1.3816 -0.6179
 9134WAT      O27803   2.763   5.855   2.853 -0.5455  0.3448  0.2531
 9134WAT     H127804   2.817   5.778   2.833 -0.2251  0.5956  0.1319
 9134WAT     H227805   2.789   5.919   2.786  0.4968  1.1806  1.4196
 9135WAT      O27806   0.690   3.236   1.383  0.5381 -1.1275 -0.0934
 9135WAT     H127807   0.599   3.259   1.366  0.5825 -1.0234 -0.1979
 9135WAT     H227808   0.739   3.287   1.319  0.9413  1.5151  2.1407
 9136WAT      O27809   6.412   2.539   1.169  0.0769 -0.4082  0.4139
 9136WAT     H127810   6.391   2.445   1.168  0.6842 -0.5607 -1.4971
 9136WAT     H227811   6.468   2.552   1.092  1.3484  1.2299  1.5447
 9137WAT      O27812   7.289   5.093   1.259  0.1847  0.2231 -0.1602
 9137WAT     H127813   7.335   5.051   1.332 -0.7743  1.2008  1.0418
 9137WAT     H227814   7.214   5.137   1.300 -1.4215 -0.7010 -1.9546
 9138WAT      O27815   0.563   5.994   2.621  0.4327  0.9766 -0.1303
 9138WAT     H127816   0.646   6.041   2.615  0.0802  1.6936  0.5345
 9138WAT     H227817   0.583   5.918   2.677  0.3646  1.8025  1.0498
 9139WAT      O27818   7.185   1.449   1.493  0.1105 -0.6189 -0.7201
 9139WAT     H127819   7.197   1.511   1.421  2.3398  0.2094  0.2774
 9139WAT     H227820   7.270   1.407   1.503 -0.8110 -2.3982 -0.0445
 9140WAT      O27821   3.352   0.503   1.712  0.1945 -0.1466 -0.2838
 9140WAT     H127822   3.364   0.550   1.794  1.2421  1.1808 -1.1453
 9140WAT     H227823   3.386   0.415   1.729  0.3462  0.0972  0.7169
 9141WAT      O27824   5.622   0.852   1.171 -0.8501  0.3150  0.2908
 9141WAT     H127825   5.530   0.871   1.189 -0.8302 -0.8701  1.9790
 9141WAT     H227826   5.620   0.787   1.101 -1.4341 -1.0504  1.5255
 9142WAT      O27827   6.426   5.312   3.794  0.3824  0.2789 -0.3531
 9142WAT     H127828   6.397   5.285   3.707 -0.7183 -2.9207  0.8209
 9142WAT     H227829   6.520   5.297   3.794  0.4077  0.4269 -1.0403
 9143WAT      O27830   4.814   1.757   0.034  0.4018  0.1733  0.4758
 9143WAT     H127831   4.856   1.675   0.010  0.6858  0.0840  1.2698
 9143WAT     H227832   4.873   1.825   0.001  0.1783  0.0664 -0.1585
 9144WAT      O27833   0.941   0.677   4.887 -0.1329 -0.0275 -0.1771
 9144WAT     H127834   0.994   0.663   4.809  0.8416 -1.1776  0.6496
 9144WAT     H227835   0.886   0.598   4.893 -1.2707  0.7206 -0.4970
 9145WAT      O27836   1.444   0.832   1.773 -0.2108 -0.7697  0.1441
 9145WAT     H127837   1.455   0.922   1.744  1.6386 -0.7624  0.7350
 9145WAT     H227838   1.411   0.839   1.863  0.8214 -0.6607  0.5164
 9146WAT      O27839   4.348   0.428   5.733 -0.2288 -0.1143  0.2080
 9146WAT     H127840   4.349   0.333   5.744  0.1419 -0.2749 -0.9966
 9146WAT     H227841   4.417   0.460   5.791  0.5316 -0.7229 -0.3382
 9147WAT      O27842   6.090   5.888   0.623  0.4090 -0.7281  0.1220
 9147WAT     H127843   6.182   5.882   0.649  0.4103 -1.0752  0.0473
 9147WAT     H227844   6.093   5.907   0.529  0.4386 -3.2287 -0.4619
 9148WAT      O27845   3.130   4.412   5.041 -0.4090 -0.1371  0.2223
 9148WAT     H127846   3.037   4.430   5.059 -0.4938  0.6157 -0.8670
 9148WAT     H227847   3.177   4.474   5.097 -0.6314  1.1028 -0.9189
 9149WAT      O27848   6.140   0.916   4.936 -0.2221 -0.2553 -0.1164
 9149WAT     H127849   6.085   0.871   5.000 -0.9012  1.6970  0.7240
 9149WAT     H227850   6.078   0.960   4.878  0.4096 -1.1631 -1.5324
 9150WAT      O27851   5.820   5.937   3.651 -0.6141  0.6347 -0.0139
 9150WAT     H127852   5.754   5.910   3.715  0.3580  0.0715  0.7902
 9150WAT     H227853   5.903   5.918   3.694  0.1165  2.6916 -0.4097
 9151WAT      O27854   1.331   3.985   1.894  0.0567  0.2358 -0.4482
 9151WAT     H127855   1.405   3.924   1.896  1.4460  1.8479  0.1840
 9151WAT     H227856   1.297   3.984   1.984  0.6132  0.9505 -0.2130
 9152WAT      O27857   5.186   4.443   3.309  0.2348  0.2236 -0.1720
 9152WAT     H127858   5.226   4.463   3.225  0.0300  0.4105 -0.2266
 9152WAT     H227859   5.253   4.466   3.374  0.6051 -0.4570 -0.3050
 9153WAT      O27860   2.043   4.059   5.387 -0.3979 -0.4095  0.2240
 9153WAT     H127861   1.951   4.073   5.407 -0.6036 -0.7537 -0.4619
 9153WAT     H227862   2.087   4.139   5.417 -1.0287  0.1066 -0.2161
 9154WAT      O27863   6.169   2.825   3.269 -0.2849  0.2835  0.1307
 9154WAT     H127864   6.121   2.891   3.319 -1.6080 -1.3821  1.1304
 9154WAT     H227865   6.154   2.743   3.316  2.6834 -0.5135 -0.1141
 9155WAT      O27866   0.969   3.406   3.039  0.0901 -0.0047  0.5583
 9155WAT     H127867   1.037   3.456   2.994  1.0214 -1.2628  0.4898
 9155WAT     H227868   1.017   3.342   3.091 -0.9970 -2.3857 -1.1703
 9156WAT      O27869   6.093   6.621   1.739  0.7253  0.5332  0.3544
 9156WAT     H127870   6.126   6.554   1.799 -0.1616  0.5860  0.9111
 9156WAT     H227871   6.085   6.700   1.792 -2.1693  0.0494  0.8181
 9157WAT      O27872   6.940   5.042   3.151  0.1573 -0.1901 -0.3562
 9157WAT     H127873   6.984   5.111   3.101  0.8358 -1.5242 -1.6599
 9157WAT     H227874   6.848   5.051   3.129  0.1847  0.5512 -0.1941
 9158WAT      O27875   0.334   1.127   5.896  0.5747  0.0079 -0.0764
 9158WAT     H127876   0.296   1.043   5.868 -2.2544  1.0327  0.3888
 9158WAT     H227877   0.357   1.113   5.988 -0.7042 -0.0640  0.2588
 9159WAT      O27878   0.657   4.482   0.065  0.4747 -0.0779 -0.2321
 9159WAT     H127879   0.701   4.535   0.131  0.1035  1.7384 -1.3639
 9159WAT     H227880   0.727   4.434   0.022  1.2667  1.8413 -1.1988
 9160WAT      O27881   4.336   3.527   0.966 -0.3086 -0.5017  0.5221
 9160WAT     H127882   4.393   3.451   0.952  3.6085  1.9344  1.4790
 9160WAT     H227883   4.321   3.529   1.061  0.1172  0.1825  0.5847
 9161WAT      O27884   5.541   3.484   2.952 -0.1554 -0.4278 -0.3246
 9161WAT     H127885   5.542   3.390   2.933 -1.2294 -0.8189  1.3164
 9161WAT     H227886   5.507   3.490   3.041  0.8012  1.4810 -0.0300
 9162WAT      O27887   6.786   4.786   5.864 -0.7317  0.0195  0.6723
 9162WAT     H127888   6.809   4.735   5.942 -1.9230 -1.8213 -0.1083
 9162WAT     H227889   6.697   4.815   5.880 -2.0348 -2.6582 -1.0093
 9163WAT      O27890   1.503   7.028   2.571 -0.2321 -0.1094  0.0306
 9163WAT     H127891   1.409   7.028   2.587 -0.0673  0.9024  1.1520
 9163WAT     H227892   1.529   6.936   2.579 -1.2225 -0.5173 -1.0856
 9164WAT      O27893   1.174   4.603   0.975 -0.1288 -0.1798 -0.6262
 9164WAT     H127894   1.146   4.565   1.058  0.9765 -0.7518 -0.4929
 9164WAT     H227895   1.200   4.693   0.998  2.1026 -0.9365  0.1011
 9165WAT      O27896   6.964   3.893   0.323  0.1837  0.5263 -0.0241
 9165WAT     H127897   7.037   3.949   0.348 -0.3472  0.6207  1.4030
 9165WAT     H227898   6.969   3.819   0.384 -1.7477  1.2498  1.0892
 9166WAT      O27899   3.858   3.166   0.480 -0.9596  0.2273 -0.3651
 9166WAT     H127900   3.927   3.232   0.468 -0.2265 -0.0774  1.7507
 9166WAT     H227901   3.779   3.208   0.447 -0.6565  2.4758  1.5276
 9167WAT      O27902   5.656   6.058   0.841  0.1828  0.3410 -0.5819
 9167WAT     H127903   5.701   6.011   0.770  1.7982  0.0389  0.5736
 9167WAT     H227904   5.726   6.105   0.887 -0.7165  0.1313  1.0962
 9168WAT      O27905   7.062   3.985   4.048  0.4396 -0.3318  0.1053
 9168WAT     H127906   7.117   3.907   4.052  1.7391  0.6100  1.7408
 9168WAT     H227907   7.058   4.016   4.138  1.0605  2.2384 -0.6667
 9169WAT      O27908   0.889   0.163   5.371  0.0321  0.0434  0.3300
 9169WAT     H127909   0.956   0.225   5.340  0.3076 -0.3525  0.1296
 9169WAT     H227910   0.833   0.216   5.428 -0.4794  0.7950 -0.8229
 9170WAT      O27911   3.466   0.258   1.832 -0.3655 -0.0825 -0.2966
 9170WAT     H127912   3.406   0.255   1.907 -0.0207  0.3503  0.0011
 9170WAT     H227913   3.455   0.173   1.789  1.4087 -1.4931  1.8094
 9171WAT      O27914   6.783   3.615   2.494  0.0207 -0.3020 -0.0634
 9171WAT     H127915   6.859   3.632   2.550  0.0083  0.1071 -0.1658
 9171WAT     H227916   6.749   3.531   2.524  0.7652 -0.6930 -0.2906
 9172WAT      O27917   4.523   1.667   5.240 -0.3277 -0.3172  0.5755
 9172WAT     H127918   4.585   1.638   5.306  2.0120  0.4811 -1.1007
 9172WAT     H227919   4.489   1.750   5.274  0.9186  0.1352  0.7945
 9173WAT      O27920   5.811   0.437   4.078 -0.0259  0.1583 -0.0147
 9173WAT     H127921   5.900   0.435   4.113  0.8189  0.5572 -2.0265
 9173WAT     H227922   5.777   0.523   4.103  0.2818  0.1548  0.4284
 9174WAT      O27923   3.401   5.284   1.454  0.2379  0.3732  0.1293
 9174WAT     H127924   3.355   5.250   1.377  1.2286 -1.3363  0.2452
 9174WAT     H227925   3.340   5.349   1.491 -1.7108 -1.1539 -0.2032
 9175WAT      O27926   3.593   0.400   4.999  0.1379  0.0083 -0.4772
 9175WAT     H127927   3.501   0.407   4.973  0.4577  0.8443 -1.4478
 9175WAT     H227928   3.638   0.463   4.943  1.2470 -0.0993  0.2791
 9176WAT      O27929   7.473   4.414   2.960 -0.0827  0.1801 -0.6357
 9176WAT     H127930   7.543   4.372   3.012  0.0903  1.3476  0.1162
 9176WAT     H227931   7.454   4.351   2.891  0.6053 -0.8643  0.0808
 9177WAT      O27932   5.581   3.981   2.224  0.0561  0.5450  0.1344
 9177WAT     H127933   5.598   3.967   2.131  0.0864 -2.8323  0.5197
 9177WAT     H227934   5.667   3.971   2.265 -0.4463 -1.3873  0.7787
 9178WAT      O27935   0.995   2.542   5.984  0.4751 -0.1702  0.3624
 9178WAT     H127936   1.004   2.637   5.997  0.9711 -0.2512  0.6496
 9178WAT     H227937   0.901   2.527   5.978  0.2824  0.1217  2.0980
 9179WAT      O27938   2.627   3.015   5.256  0.6489  0.0431  0.1779
 9179WAT     H127939   2.721   3.001   5.246  0.9077  0.8049  1.4217
 9179WAT     H227940   2.587   2.942   5.208  1.8172  0.9890 -2.4131
 9180WAT      O27941   7.111   2.588   3.828  0.5206  0.0375  0.4256
 9180WAT     H127942   7.194   2.541   3.820  0.5688  0.1867  0.0665
 9180WAT     H227943   7.099   2.597   3.923 -1.0652 -3.5373  0.7301
 9181WAT      O27944   6.094   0.698   2.082 -0.3088  0.5559  0.4588
 9181WAT     H127945   6.025   0.638   2.110 -2.1235  2.8042  1.1329
 9181WAT     H227946   6.070   0.782   2.121  3.2551  1.3227  1.3834
 9182WAT      O27947   7.332   0.347   1.052 -0.0757  0.1641 -0.4364
 9182WAT     H127948   7.307   0.296   0.975 -1.2986 -0.4099  0.3004
 9182WAT     H227949   7.252   0.350   1.105  0.8178  0.2597  0.9535
 9183WAT      O27950   0.184   1.016   0.155  0.4294 -0.2956 -0.0108
 9183WAT     H127951   0.191   0.978   0.068 -1.2094 -0.0751 -0.2794
 9183WAT     H227952   0.271   1.049   0.175  0.4668  1.2255 -2.3149
 9184WAT      O27953   1.560   4.870   0.909 -0.2669 -0.0886  0.1647
 9184WAT     H127954   1.547   4.783   0.946 -1.1712 -0.3617 -0.7736
 9184WAT     H227955   1.509   4.870   0.829 -0.8981  1.5712  0.5376
 9185WAT      O27956   3.781   3.229   5.379 -0.1676  0.5354 -0.3976
 9185WAT     H127957   3.824   3.314   5.374 -0.3376  0.6384 -0.1048
 9185WAT     H227958   3.808   3.194   5.464  1.7270 -0.6783 -1.4302
 9186WAT      O27959   6.487   3.848   1.649 -0.1837  0.4665 -0.3137
 9186WAT     H127960   6.496   3.897   1.731 -0.1111  0.6749 -0.4457
 9186WAT     H227961   6.563   3.873   1.597 -0.1636  0.2380 -0.3958
 9187WAT      O27962   4.074   7.193   3.359  0.6243 -0.2152 -0.3428
 9187WAT     H127963   3.983   7.165   3.346 -0.3691  2.0920  0.9679
 9187WAT     H227964   4.100   7.152   3.441  0.2375  0.2277  0.0104
 9188WAT      O27965   4.193   0.387   3.525  0.0611 -0.0281  0.3017
 9188WAT     H127966   4.250   0.461   3.505 -1.1977  0.9783  0.2956
 9188WAT     H227967   4.138   0.418   3.598  1.4675 -1.9957  2.3315
 9189WAT      O27968   1.145   1.426   2.238 -0.1762  0.2727  0.0029
 9189WAT     H127969   1.235   1.427   2.205  0.2200  2.4136  0.9664
 9189WAT     H227970   1.147   1.361   2.308  0.3728 -0.3730 -0.5997
 9190WAT      O27971   0.423   3.811   4.308  0.3930 -0.5017  0.1414
 9190WAT     H127972   0.452   3.899   4.284 -1.0514 -0.0326 -0.0143
 9190WAT     H227973   0.400   3.817   4.400 -0.4944 -0.4657 -0.0669
 9191WAT      O27974   7.414   2.858   5.348 -0.0767  0.2057  0.0348
 9191WAT     H127975   7.396   2.898   5.433  1.1269  0.2758  0.2745
 9191WAT     H227976   7.397   2.765   5.360 -0.6498  0.3185  0.1283
 9192WAT      O27977   2.717   0.356   0.284  0.3880  0.3606  0.1454
 9192WAT     H127978   2.784   0.410   0.243 -0.2484  0.6463 -0.5505
 9192WAT     H227979   2.642   0.415   0.294 -0.8488 -0.7186 -1.9910
 9193WAT      O27980   0.716   2.925   0.144  1.2060  0.3612  0.3922
 9193WAT     H127981   0.629   2.913   0.182  0.9627  1.0302  0.0717
 9193WAT     H227982   0.775   2.877   0.202  0.5105 -0.9426  0.0681
 9194WAT      O27983   1.281   6.263   5.732 -0.2551  0.3221 -0.0774
 9194WAT     H127984   1.301   6.326   5.801  2.6325 -1.1618  0.6508
 9194WAT     H227985   1.314   6.179   5.767  0.3299 -0.6792 -2.7972
 9195WAT      O27986   7.093   1.197   4.172  0.0481  0.2085  0.3236
 9195WAT     H127987   7.130   1.285   4.164 -0.3290  0.3029 -0.3990
 9195WAT     H227988   7.164   1.145   4.211  0.4285  0.7208  0.3243
 9196WAT      O27989   3.495   2.239   1.116 -0.1542  0.1631 -0.1920
 9196WAT     H127990   3.455   2.279   1.039 -0.5053  1.4078  0.6071
 9196WAT     H227991   3.427   2.242   1.183 -0.0785 -1.5311 -0.0042
 9197WAT      O27992   2.423   1.770   6.070 -0.3306  0.1794 -0.1558
 9197WAT     H127993   2.352   1.807   6.124 -1.0372 -2.5507  0.9898
 9197WAT     H227994   2.479   1.724   6.133  1.7588  1.1197 -1.2264
 9198WAT      O27995   1.062   1.193   2.447  0.3647 -0.1926 -0.1760
 9198WAT     H127996   1.131   1.211   2.511  0.1251  0.3210 -0.0538
 9198WAT     H227997   0.984   1.176   2.500  0.5534 -1.4899 -0.2954
 9199WAT      O27998   6.729   4.726   1.110  0.3811 -0.2480  0.1287
 9199WAT     H127999   6.805   4.753   1.058  0.9560 -1.2127  0.4462
 9199WAT     H228000   6.759   4.650   1.158 -0.9203 -0.9029 -0.0552
 9200WAT      O28001   7.651   1.144   3.085  0.8724 -0.3868  0.0642
 9200WAT     H128002   7.587   1.076   3.110  0.8082  0.2511  1.7897
 9200WAT     H228003   7.734   1.112   3.120  0.7094  0.7243  1.5651
 9201WAT      O28004   1.300   2.822   5.245 -0.5835  0.2641  0.4564
 9201WAT     H128005   1.225   2.862   5.201  1.6399  3.8207 -0.5156
 9201WAT     H228006   1.297   2.856   5.335 -0.8119 -0.6091  0.7844
 9202WAT      O28007   2.171   1.279   2.214 -0.2964  0.2244  0.1704
 9202WAT     H128008   2.247   1.306   2.266 -0.9793  2.9465 -0.0843
 9202WAT     H228009   2.096   1.299   2.270 -1.0006  2.3419 -1.3964
 9203WAT      O28010   3.945   1.424   2.613  0.2073  0.0531  0.1130
 9203WAT     H128011   3.964   1.509   2.573  0.0395 -0.1980 -0.5012
 9203WAT     H228012   3.975   1.433   2.704 -0.7311  1.1061  0.3386
 9204WAT      O28013   0.807   3.146   2.167 -0.3905 -0.3219  0.5536
 9204WAT     H128014   0.737   3.107   2.219 -2.5249  0.9235 -1.2187
 9204WAT     H228015   0.841   3.216   2.222 -1.2547 -0.2742  1.0546
 9205WAT      O28016   6.221   6.499   3.237  0.2579 -0.4002 -0.3821
 9205WAT     H128017   6.179   6.548   3.307  1.0576 -0.5617  0.2289
 9205WAT     H228018   6.224   6.408   3.269  0.8265 -0.4364 -0.5259
 9206WAT      O28019   0.409   3.020   5.590  0.0659 -0.1474 -0.1828
 9206WAT     H128020   0.337   3.078   5.567  0.4048  1.4458  2.4150
 9206WAT     H228021   0.367   2.943   5.628 -0.3307 -0.9742 -2.1940
 9207WAT      O28022   6.167   3.343   1.565 -0.2517 -0.1446 -0.3017
 9207WAT     H128023   6.156   3.438   1.571  0.2272 -0.0886 -0.2125
 9207WAT     H228024   6.212   3.329   1.482  2.3782 -0.0057  0.9765
 9208WAT      O28025   3.816   6.278   3.404 -0.0759  0.2781 -0.2739
 9208WAT     H128026   3.727   6.254   3.376 -0.4639 -1.8360  2.3109
 9208WAT     H228027   3.810   6.370   3.428 -0.7628  0.9711 -2.8009
 9209WAT      O28028   3.108   5.798   3.551 -0.0299 -0.2767 -0.1585
 9209WAT     H128029   3.191   5.772   3.511 -0.4965 -0.8599 -0.7843
 9209WAT     H228030   3.084   5.723   3.606 -0.3912 -0.3304 -0.3857
 9210WAT      O28031   6.830   0.558   5.515 -0.1482 -0.4301 -0.0630
 9210WAT     H128032   6.816   0.523   5.427 -0.9124 -0.1597 -0.0517
 9210WAT     H228033   6.788   0.494   5.573 -1.5444  0.4618 -0.0397
 9211WAT      O28034   1.346   4.946   6.078 -0.1595  0.1785 -0.5733
 9211WAT     H128035   1.321   5.027   6.035 -0.3540 -0.2646 -1.3158
 9211WAT     H228036   1.294   4.879   6.035 -0.3437 -0.2841  0.3487
 9212WAT      O28037   5.472   4.603   2.359 -0.1309 -0.0657 -0.3204
 9212WAT     H128038   5.472   4.617   2.264 -0.7226 -1.0752 -0.4811
 9212WAT     H228039   5.561   4.572   2.377 -0.0651 -0.0347 -0.5766
 9213WAT      O28040   0.190   6.205   5.717 -0.1386 -0.6218  0.2460
 9213WAT     H128041   0.099   6.192   5.742 -0.5128 -1.3048 -1.3368
 9213WAT     H228042   0.232   6.121   5.735  0.2002 -0.3067  0.9784
 9214WAT      O28043   2.001   3.569   4.937  0.0533 -0.8644  0.1567
 9214WAT     H128044   2.008   3.644   4.997 -1.3823 -1.4421  1.0887
 9214WAT     H228045   2.055   3.501   4.977  1.6655 -0.2631 -0.8833
 9215WAT      O28046   7.169   5.045   4.312  0.5777 -0.3659 -0.4387
 9215WAT     H128047   7.184   4.982   4.242  0.8116  0.1075 -0.8264
 9215WAT     H228048   7.242   5.107   4.304  2.5324 -2.1184  2.3237
 9216WAT      O28049   2.006   2.611   3.002 -0.2008 -0.2509 -0.3993
 9216WAT     H128050   2.040   2.670   2.935 -0.1305  1.6971  1.2687
 9216WAT     H228051   1.932   2.658   3.040 -0.2233 -1.2976  0.9119
 9217WAT      O28052   1.795   4.338   5.423 -0.4192 -0.6358 -0.3509
 9217WAT     H128053   1.762   4.386   5.498 -3.4503 -1.8824 -0.7413
 9217WAT     H228054   1.785   4.398   5.349  1.1200  0.0378 -0.0557
 9218WAT      O28055   5.711   5.418   0.931  0.0167  0.0387  0.3907
 9218WAT     H128056   5.716   5.410   1.026  0.5451 -0.8595  0.3055
 9218WAT     H228057   5.801   5.403   0.901  0.3516  2.5840 -0.1247
 9219WAT      O28058   0.276   5.010   4.827 -0.4337 -0.1234  0.1726
 9219WAT     H128059   0.337   5.021   4.900  0.5343 -0.5223 -0.5551
 9219WAT     H228060   0.202   4.962   4.864  0.8922 -2.0197  0.4794
 9220WAT      O28061   3.364   6.126   3.580 -0.6428 -0.5326 -0.2505
 9220WAT     H128062   3.413   6.198   3.541  0.8635 -1.1086  0.4771
 9220WAT     H228063   3.301   6.169   3.638 -1.4967  0.2471 -1.6929
 9221WAT      O28064   3.805   2.897   5.107 -0.0618  0.2463 -0.4721
 9221WAT     H128065   3.797   2.934   5.019  1.7366  2.5205  0.2236
 9221WAT     H228066   3.899   2.882   5.118 -0.2710 -0.1262  1.0186
 9222WAT      O28067   5.827   4.221   0.745  0.0247 -0.6235  0.3130
 9222WAT     H128068   5.742   4.265   0.747 -0.0435 -0.7556  0.3609
 9222WAT     H228069   5.874   4.255   0.822 -0.6329 -1.8196  1.2860
 9223WAT      O28070   5.734   3.470   2.615  0.3203 -0.2613 -0.0129
 9223WAT     H128071   5.806   3.484   2.553 -0.2847  2.5517 -0.2018
 9223WAT     H228072   5.743   3.542   2.678 -1.0102 -1.1674  1.2703
 9224WAT      O28073   5.333   4.516   3.096 -0.1077 -0.1010 -0.0765
 9224WAT     H128074   5.380   4.458   3.037 -0.0172  0.8632 -0.9717
 9224WAT     H228075   5.385   4.597   3.098  0.3416 -0.3735  1.9698
 9225WAT      O28076   2.594   2.192   3.933  0.4682  0.5840 -0.5596
 9225WAT     H128077   2.527   2.241   3.885 -0.0441  0.8062  0.3694
 9225WAT     H228078   2.572   2.100   3.916 -1.2414  0.5982  1.2443
 9226WAT      O28079   2.098   2.562   5.073 -0.3846 -0.3249  0.2529
 9226WAT     H128080   2.145   2.509   5.137  0.2545 -0.1824 -0.0816
 9226WAT     H228081   2.159   2.633   5.052 -0.8705  0.0297  0.0235
 9227WAT      O28082   1.780   0.455   2.246 -0.3783 -0.0790  0.4800
 9227WAT     H128083   1.764   0.548   2.233 -2.6056 -0.4684 -0.0563
 9227WAT     H228084   1.856   0.435   2.192 -0.3474  1.2755  0.0029
 9228WAT      O28085   1.941   6.687   6.024  0.0170  0.2723  0.2784
 9228WAT     H128086   1.885   6.748   5.976 -0.1282  0.2594  0.4315
 9228WAT     H228087   1.920   6.703   6.116  1.3674  1.3757  0.4381
 9229WAT      O28088   3.958   6.503   3.135  0.5281 -0.3610  0.0822
 9229WAT     H128089   3.974   6.489   3.228  0.2121  1.9104  0.5289
 9229WAT     H228090   3.976   6.596   3.121 -1.4187 -0.1667 -1.6727
 9230WAT      O28091   0.332   1.262   1.299  0.0377  0.2080 -0.0525
 9230WAT     H128092   0.257   1.318   1.319 -0.6688 -0.6136 -0.3220
 9230WAT     H228093   0.331   1.254   1.204  0.2286 -0.1284 -0.0293
 9231WAT      O28094   3.751   0.492   5.219  0.0597 -0.2541 -0.1054
 9231WAT     H128095   3.702   0.457   5.145  0.8286  0.3936 -0.9399
 9231WAT     H228096   3.737   0.428   5.289  0.7475 -1.8090 -1.3354
 9232WAT      O28097   4.501   6.855   5.938 -0.0935 -0.1689  0.2327
 9232WAT     H128098   4.515   6.905   6.019  0.3055 -1.0359  0.7130
 9232WAT     H228099   4.406   6.848   5.931 -0.1728  0.9090 -0.0097
 9233WAT      O28100   7.368   0.140   1.842 -0.8182 -0.4381  0.3438
 9233WAT     H128101   7.441   0.202   1.839 -2.4321  1.5556 -1.6745
 9233WAT     H228102   7.397   0.067   1.787 -0.2702  0.2883 -0.3736
 9234WAT      O28103   2.760   7.052   2.767  0.0556 -0.0726  0.3003
 9234WAT     H128104   2.813   7.001   2.828 -1.4885 -1.2872  0.6883
 9234WAT     H228105   2.787   7.021   2.680 -0.1196 -0.7988  0.4979
 9235WAT      O28106   2.717   1.388   0.785  0.6416  0.6005  0.1323
 9235WAT     H128107   2.692   1.471   0.826 -1.6454  0.0126  0.0845
 9235WAT     H228108   2.731   1.328   0.859 -1.5925  0.0486  0.1813
 9236WAT      O28109   3.861   3.673   3.809  0.5890 -0.4695  0.0765
 9236WAT     H128110   3.798   3.603   3.829  0.3828 -0.4455 -0.4881
 9236WAT     H228111   3.943   3.627   3.791  0.4858 -0.5562 -0.1696
 9237WAT      O28112   2.915   4.641   1.679  0.0894  0.0415 -0.5413
 9237WAT     H128113   2.911   4.642   1.775  1.2249 -1.3928 -0.4501
 9237WAT     H228114   2.827   4.666   1.651 -0.6025 -0.6701  0.8862
 9238WAT      O28115   2.015   7.131   1.830  0.7181 -0.1282 -0.2987
 9238WAT     H128116   2.076   7.186   1.880  0.7199 -0.0549 -0.3811
 9238WAT     H228117   1.940   7.120   1.888  0.4293  0.5147 -0.5368
 9239WAT      O28118   6.264   6.448   5.855 -0.2803  0.1942  0.1356
 9239WAT     H128119   6.328   6.410   5.914 -1.3690 -0.0957  1.1588
 9239WAT     H228120   6.184   6.457   5.907 -0.2814  3.3236 -0.2159
 9240WAT      O28121   6.016   0.618   1.280  0.5465 -0.1355  0.8066
 9240WAT     H128122   6.009   0.534   1.326 -1.3710 -0.6660 -0.3361
 9240WAT     H228123   5.935   0.623   1.229  2.2799  0.7208 -2.0188
 9241WAT      O28124   0.529   3.906   5.766  0.4220  0.0802  0.6722
 9241WAT     H128125   0.537   3.903   5.861  0.0576 -0.1975  0.6931
 9241WAT     H228126   0.475   3.983   5.750 -0.3720 -0.4597  0.7421
 9242WAT      O28127   3.238   0.051   2.321 -0.2693  0.4287 -0.2362
 9242WAT     H128128   3.146   0.068   2.303 -0.1148  1.2002 -0.3338
 9242WAT     H228129   3.269   0.130   2.365  0.1545 -0.1348  0.5105
 9243WAT      O28130   0.765   3.361   1.160  0.0744  0.2588 -0.1512
 9243WAT     H128131   0.756   3.450   1.126  0.3971 -0.0588 -1.0908
 9243WAT     H228132   0.754   3.304   1.084  3.9304 -0.3966 -0.4355
 9244WAT      O28133   1.043   3.173   5.029  0.6452 -0.0884  0.3155
 9244WAT     H128134   1.137   3.190   5.029  0.3086  2.0046 -0.0680
 9244WAT     H228135   1.008   3.235   5.093 -0.5324 -0.4804  0.0674
 9245WAT      O28136   0.972   0.376   0.229 -0.2066  0.4227  0.3522
 9245WAT     H128137   0.939   0.364   0.318  1.5652 -1.0390  0.8744
 9245WAT     H228138   1.066   0.391   0.239 -0.0692  0.9244 -1.2525
 9246WAT      O28139   5.492   1.089   2.724  0.1994  0.3955 -0.0789
 9246WAT     H128140   5.475   1.098   2.818 -0.7702 -0.1872 -0.1840
 9246WAT     H228141   5.557   1.157   2.705 -0.0246  0.9060  0.9001
 9247WAT      O28142   4.150   2.100   5.439 -0.1589  0.2077 -0.6332
 9247WAT     H128143   4.081   2.080   5.503  0.4453 -1.0047 -0.3195
 9247WAT     H228144   4.218   2.034   5.457  1.1653  1.4871 -0.8160
 9248WAT      O28145   1.550   3.549   6.120 -0.5755  0.1951  0.2644
 9248WAT     H128146   1.555   3.637   6.083  0.7966 -0.0625 -0.2401
 9248WAT     H228147   1.568   3.561   6.213 -1.1233  0.5269  0.3302
 9249WAT      O28148   5.916   7.030   5.457 -0.1705 -0.1088 -0.1875
 9249WAT     H128149   5.990   7.006   5.401 -0.5747 -2.0672  0.0611
 9249WAT     H228150   5.925   7.125   5.468  1.0396  0.0341 -1.9346
 9250WAT      O28151   7.074   6.388   5.982  0.1557  0.0995  0.2931
 9250WAT     H128152   7.144   6.440   5.941 -0.5439  0.5118 -0.4093
 9250WAT     H228153   7.026   6.451   6.035 -0.6022  0.1571 -0.4408
 9251WAT      O28154   1.932   0.363   1.195 -0.6040  0.0048 -0.0573
 9251WAT     H128155   1.863   0.302   1.173 -0.8950 -0.5010  2.0971
 9251WAT     H228156   1.987   0.317   1.257 -0.4192  1.6656  1.0812
 9252WAT      O28157   7.387   0.722   3.197  0.8608  0.3749  0.4076
 9252WAT     H128158   7.459   0.676   3.241  0.4033 -0.4057  0.3622
 9252WAT     H228159   7.308   0.675   3.225  0.6025 -0.5983 -1.7582
 9253WAT      O28160   4.732   0.559   4.504  0.3195  0.0990 -0.1482
 9253WAT     H128161   4.739   0.643   4.548 -0.5295 -0.4240  1.0316
 9253WAT     H228162   4.770   0.496   4.565 -1.1144 -0.6763 -0.0149
 9254WAT      O28163   3.173   6.510   4.369 -0.3942 -0.1091  0.1999
 9254WAT     H128164   3.110   6.499   4.440 -0.3053 -0.4904  0.2217
 9254WAT     H228165   3.248   6.457   4.396 -0.7157 -0.9986 -0.6139
 9255WAT      O28166   0.678   1.337   3.669 -0.1606  0.3666  0.2467
 9255WAT     H128167   0.745   1.395   3.634  0.9466 -0.9558  0.1105
 9255WAT     H228168   0.645   1.290   3.593 -0.5038  0.2530  0.4625
 9256WAT      O28169   1.209   4.026   4.846  0.0760  0.7704 -0.2959
 9256WAT     H128170   1.248   4.111   4.827 -0.0439  0.8598 -0.1468
 9256WAT     H228171   1.243   4.004   4.933  1.0865  0.0974 -0.8347
 9257WAT      O28172   6.880   3.203   5.005 -0.1976 -0.0561 -0.7213
 9257WAT     H128173   6.803   3.149   5.022 -1.5691  2.0730  0.1689
 9257WAT     H228174   6.872   3.277   5.064  3.1410 -0.2547  0.1933
 9258WAT      O28175   4.795   4.009   0.890  0.4063  0.1090  0.5203
 9258WAT     H128176   4.868   4.016   0.828  0.6909  1.3200  0.9590
 9258WAT     H228177   4.828   3.952   0.959  1.3467  1.4356  1.2153
 9259WAT      O28178   3.886   6.450   3.638 -0.4476  0.4436  0.0566
 9259WAT     H128179   3.876   6.439   3.733  1.4919 -2.0693  0.0477
 9259WAT     H228180   3.967   6.500   3.628 -0.4985  0.4571 -0.3078
 9260WAT      O28181   3.863   4.810   1.156  0.2261  0.6001 -0.0234
 9260WAT     H128182   3.897   4.721   1.162 -0.7297  0.2301  0.0049
 9260WAT     H228183   3.941   4.866   1.161  0.8337 -0.2299 -0.0994
 9261WAT      O28184   6.541   6.681   3.830  0.0543  0.2629 -0.2043
 9261WAT     H128185   6.479   6.631   3.883  0.5582  0.6465  0.7813
 9261WAT     H228186   6.487   6.722   3.762 -0.3222 -1.8818 -1.2984
 9262WAT      O28187   4.260   4.178   3.961  0.5386  0.0874 -0.2847
 9262WAT     H128188   4.214   4.248   4.006  1.6041 -0.6797  2.1571
 9262WAT     H228189   4.193   4.112   3.942  0.2477 -0.0853  1.2784
 9263WAT      O28190   3.486   1.028   0.159 -0.3218 -0.2434 -0.2570
 9263WAT     H128191   3.547   1.097   0.134 -0.5659 -0.3122 -1.0802
 9263WAT     H228192   3.443   1.004   0.077  0.6656 -2.2818 -0.2235
 9264WAT      O28193   1.220   6.805   0.476 -0.5314  0.1889  0.1597
 9264WAT     H128194   1.182   6.887   0.509  1.1618  0.9538  0.2742
 9264WAT     H228195   1.240   6.754   0.554 -0.2437  0.2862  0.1501
 9265WAT      O28196   5.156   2.819   1.612 -0.7730 -0.0281  0.9339
 9265WAT     H128197   5.219   2.822   1.683 -0.0097 -0.0153  0.2669
 9265WAT     H228198   5.195   2.872   1.542 -0.1072 -2.4241 -0.6059
 9266WAT      O28199   5.632   1.747   0.698 -0.3360  0.5065 -0.1455
 9266WAT     H128200   5.563   1.685   0.676 -0.7668  0.6371  0.7682
 9266WAT     H228201   5.713   1.699   0.685 -0.6148  0.1761 -0.7002
 9267WAT      O28202   1.646   4.973   3.319 -0.1831 -0.0174 -0.1702
 9267WAT     H128203   1.648   4.915   3.243  1.6892  0.1405 -0.3023
 9267WAT     H228204   1.647   5.061   3.282 -0.6010  0.0768  0.0384
 9268WAT      O28205   3.217   0.966   3.077 -0.0227 -0.1031 -0.4610
 9268WAT     H128206   3.185   0.877   3.059 -0.3892  0.0872 -0.7529
 9268WAT     H228207   3.309   0.964   3.049  0.3765 -0.7795  0.8042
 9269WAT      O28208   0.274   1.382   5.997  0.2044 -0.8243  0.4544
 9269WAT     H128209   0.331   1.370   6.073 -0.5067 -0.7942  0.9970
 9269WAT     H228210   0.288   1.304   5.944  0.8673 -0.7436  0.4986
 9270WAT      O28211   6.513   3.819   3.615  0.5374 -0.1803  0.2020
 9270WAT     H128212   6.578   3.771   3.665 -0.0212  0.0514  1.1669
 9270WAT     H228213   6.435   3.764   3.618  0.2498  0.2251  0.3077
 9271WAT      O28214   1.381   4.645   5.277 -0.3340  0.0481  0.2308
 9271WAT     H128215   1.345   4.557   5.266  0.4530 -0.1104 -1.4040
 9271WAT     H228216   1.457   4.633   5.334 -0.4792 -0.2540  0.3639
 9272WAT      O28217   1.032   4.194   3.596  0.2052 -0.2579  0.4362
 9272WAT     H128218   0.943   4.194   3.631 -0.5888  1.3969 -1.3536
 9272WAT     H228219   1.081   4.250   3.654 -0.1983 -0.3080  0.8308
 9273WAT      O28220   1.270   2.893   0.446 -0.2630 -0.7129  0.1165
 9273WAT     H128221   1.324   2.874   0.522  0.4313 -0.2982 -0.2689
 9273WAT     H228222   1.317   2.961   0.399 -0.6756 -0.9820 -0.7021
 9274WAT      O28223   6.069   4.308   2.459 -0.0641  0.4249  0.1662
 9274WAT     H128224   5.977   4.315   2.483  0.1797  1.7400  0.8285
 9274WAT     H228225   6.112   4.272   2.537  0.1808  1.1543  0.3762
 9275WAT      O28226   4.180   6.656   5.563 -0.1612  0.1295 -0.3829
 9275WAT     H128227   4.173   6.624   5.474  0.3863 -0.9445 -0.0532
 9275WAT     H228228   4.244   6.728   5.557 -0.1069  0.0464 -0.8407
 9276WAT      O28229   2.182   6.635   3.261  0.1286 -0.3912 -0.2787
 9276WAT     H128230   2.191   6.544   3.288 -0.5795  0.2902  2.6196
 9276WAT     H228231   2.269   6.659   3.228  1.2805 -1.2820  1.8866
 9277WAT      O28232   1.566   2.893   4.030  0.2186 -0.2794 -0.2723
 9277WAT     H128233   1.496   2.870   4.090 -0.6187 -0.0442 -1.1381
 9277WAT     H228234   1.625   2.818   4.031 -0.9129 -1.2110 -0.7848
 9278WAT      O28235   4.147   3.243   0.776 -0.0434 -0.0395  0.2576
 9278WAT     H128236   4.160   3.323   0.724 -1.0699 -0.6618 -1.0231
 9278WAT     H228237   4.109   3.274   0.858  0.0820  0.8453 -0.0078
 9279WAT      O28238   1.010   5.812   2.058 -0.1497  0.3603 -0.5582
 9279WAT     H128239   1.083   5.808   1.996  0.0264  1.4322 -0.4211
 9279WAT     H228240   1.049   5.795   2.143 -0.4190 -1.2965 -0.7295
 9280WAT      O28241   3.124   1.851   1.163 -0.1019  0.2624 -0.0684
 9280WAT     H128242   3.205   1.881   1.204 -0.6055  0.5166  0.7512
 9280WAT     H228243   3.083   1.794   1.228 -0.3665 -0.2307 -0.6541
 9281WAT      O28244   6.821   3.087   1.336  0.4975 -0.4692 -0.1119
 9281WAT     H128245   6.839   3.154   1.270  0.0560 -0.3020 -0.0657
 9281WAT     H228246   6.730   3.063   1.322 -0.0997  0.6804  1.4112
 9282WAT      O28247   0.655   3.693   3.050  0.1545 -0.3631 -0.0692
 9282WAT     H128248   0.737   3.717   3.093 -0.5939  0.8600  0.7391
 9282WAT     H228249   0.656   3.597   3.048  1.9172 -0.3706 -0.7417
 9283WAT      O28250   4.072   3.370   4.599 -0.1506  0.2869  0.8065
 9283WAT     H128251   4.096   3.318   4.522 -1.9107  0.9379 -0.2405
 9283WAT     H228252   4.114   3.455   4.584 -3.6218  1.7939 -1.5654
 9284WAT      O28253   6.378   2.019   5.074 -0.2144 -1.0011 -0.1442
 9284WAT     H128254   6.295   2.030   5.120 -0.0899 -2.0531  0.3510
 9284WAT     H228255   6.440   2.071   5.126 -0.7349  0.6935 -1.1254
 9285WAT      O28256   5.137   7.123   6.134  0.2932  0.0300  0.0202
 9285WAT     H128257   5.156   7.034   6.161  0.4019  0.0337 -0.0451
 9285WAT     H228258   5.217   7.154   6.092  0.0884 -0.0122 -0.4021
 9286WAT      O28259   4.999   1.741   5.110 -0.1596 -0.4259  0.2052
 9286WAT     H128260   4.922   1.760   5.056 -0.4471  0.3699  0.8856
 9286WAT     H228261   5.000   1.809   5.177  0.5289 -1.0613  0.8667
 9287WAT      O28262   3.787   6.823   1.189  0.7900  0.0213  0.3092
 9287WAT     H128263   3.708   6.771   1.176 -0.6468  2.1261  0.1690
 9287WAT     H228264   3.840   6.805   1.112 -1.4252  1.6891 -1.7585
 9288WAT      O28265   6.499   1.728   3.552  0.0596 -0.0115 -0.2621
 9288WAT     H128266   6.421   1.777   3.578 -0.6151 -1.8142  1.3292
 9288WAT     H228267   6.557   1.733   3.627  0.2591 -1.0357 -0.3323
 9289WAT      O28268   3.110   4.115   4.969  0.0968 -0.0270 -0.3422
 9289WAT     H128269   3.130   4.061   5.044 -0.2719  0.0884 -0.1571
 9289WAT     H228270   3.146   4.201   4.990 -1.3547  0.4312  0.3902
 9290WAT      O28271   2.419   2.164   1.714  0.2907 -0.0683  0.1702
 9290WAT     H128272   2.478   2.147   1.640 -0.5977  1.1494 -0.8677
 9290WAT     H228273   2.406   2.078   1.755  0.2468 -0.9248 -1.5429
 9291WAT      O28274   5.581   0.561   3.685  0.2115 -0.6046 -0.3715
 9291WAT     H128275   5.593   0.490   3.621  0.6329 -1.8318  1.0100
 9291WAT     H228276   5.597   0.520   3.769  1.0120  1.2839  0.4577
 9292WAT      O28277   5.972   6.152   0.065  0.5993  0.1474 -0.5362
 9292WAT     H128278   5.876   6.159   0.072  0.5308 -0.1873 -1.1185
 9292WAT     H228279   6.001   6.241   0.044  0.5273  0.5024  0.7852
 9293WAT      O28280   2.424   2.932   4.970  0.2178  0.0471 -0.2388
 9293WAT     H128281   2.348   2.942   5.028  0.9242 -0.8416  0.8930
 9293WAT     H228282   2.445   3.021   4.942 -0.1664  0.5101  0.8628
 9294WAT      O28283   3.479   2.994   4.303 -0.0872  0.1776 -0.5042
 9294WAT     H128284   3.436   3.073   4.335  0.0735  0.7061 -1.5607
 9294WAT     H228285   3.568   3.021   4.283  0.1012 -0.3822 -0.4445
 9295WAT      O28286   3.083   4.539   2.060 -0.0955 -0.2697 -0.1948
 9295WAT     H128287   3.001   4.575   2.026  0.1245 -0.8309 -1.3581
 9295WAT     H228288   3.057   4.488   2.137 -0.8856 -0.7185 -0.7492
 9296WAT      O28289   6.214   6.580   0.452 -0.3431  0.4174  0.3925
 9296WAT     H128290   6.210   6.615   0.363 -1.1748  0.0749  0.2792
 9296WAT     H228291   6.259   6.647   0.503  1.4633 -0.0117 -0.5662
 9297WAT      O28292   1.115   2.140   0.244 -0.0547 -0.1426 -0.0533
 9297WAT     H128293   1.032   2.187   0.248 -1.1052 -1.9413  0.3855
 9297WAT     H228294   1.116   2.086   0.323  2.2893  0.9666  0.7771
 9298WAT      O28295   2.137   4.685   3.254 -0.1897 -0.1429  0.5250
 9298WAT     H128296   2.199   4.753   3.230 -0.4451  0.2475  0.9507
 9298WAT     H228297   2.157   4.612   3.195  1.5236 -0.5028  1.4771
 9299WAT      O28298   1.010   1.743   3.235  0.2664  0.1005 -0.2421
 9299WAT     H128299   1.055   1.827   3.223  0.5861 -0.0449 -0.0734
 9299WAT     H228300   0.999   1.736   3.330 -1.0140  0.6022 -0.3289
 9300WAT      O28301   3.736   2.067   0.254  0.3411 -0.2524  0.1933
 9300WAT     H128302   3.786   2.082   0.334  0.5378  1.1003 -0.1640
 9300WAT     H228303   3.671   2.138   0.253  1.5293  0.8716 -1.7632
 9301WAT      O28304   7.258   6.978   3.989  0.6488 -0.1202  0.0813
 9301WAT     H128305   7.234   6.889   4.015  0.5902 -0.3511 -0.7314
 9301WAT     H228306   7.210   7.035   4.049  0.2412 -0.6257  0.2393
 9302WAT      O28307   5.453   1.782   4.309 -0.0294  0.3825  0.6527
 9302WAT     H128308   5.362   1.777   4.280  0.1933 -2.0364  0.2119
 9302WAT     H228309   5.449   1.766   4.404  0.1492 -3.8245  0.1090
 9303WAT      O28310   6.768   2.927   5.995 -1.2117  0.3651  0.1686
 9303WAT     H128311   6.823   2.992   6.039  0.1242 -1.2448  1.0492
 9303WAT     H228312   6.740   2.969   5.914  1.0954  1.3958 -0.1688
 9304WAT      O28313   7.644   0.085   1.324 -0.7511 -0.3407  0.4737
 9304WAT     H128314   7.683   0.020   1.381 -2.7735 -1.8425  0.2377
 9304WAT     H228315   7.595   0.143   1.382 -1.4620 -0.8790  0.4130
 9305WAT      O28316   6.617   0.455   1.776  0.2955 -0.5074 -0.3177
 9305WAT     H128317   6.580   0.386   1.720  1.2187 -1.9133  0.7360
 9305WAT     H228318   6.711   0.436   1.778  0.2671 -0.6356  1.8799
 9306WAT      O28319   3.645   1.282   1.424  0.1272 -0.5418  0.2781
 9306WAT     H128320   3.647   1.225   1.348  0.6714 -0.3252  0.1209
 9306WAT     H228321   3.617   1.226   1.496 -0.3453 -0.7576 -0.0715
 9307WAT      O28322   0.982   0.421   3.528 -0.6495 -0.2915 -0.9039
 9307WAT     H128323   1.018   0.507   3.551 -1.7241 -0.2118  0.6324
 9307WAT     H228324   1.007   0.409   3.437  1.2525  0.7615 -0.5892
 9308WAT      O28325   4.506   5.608   2.491 -0.1132 -0.1343 -0.0806
 9308WAT     H128326   4.474   5.573   2.408 -1.4188  1.8713 -0.4847
 9308WAT     H228327   4.475   5.546   2.557 -2.3360  0.1969 -0.7574
 9309WAT      O28328   5.702   3.722   6.143 -0.1413  0.4806 -0.5284
 9309WAT     H128329   5.608   3.740   6.154 -0.0855  0.8450 -0.6306
 9309WAT     H228330   5.734   3.702   6.231  0.0447  2.1031 -0.2008
 9310WAT      O28331   3.852   0.412   1.653  0.2167 -0.2895  0.0114
 9310WAT     H128332   3.905   0.492   1.645 -0.0829 -0.1118 -0.2096
 9310WAT     H228333   3.828   0.408   1.745 -1.0789  0.7280 -0.2536
 9311WAT      O28334   6.046   0.415   4.938 -0.3325  0.2985 -0.6454
 9311WAT     H128335   6.113   0.383   4.998 -0.2441  1.4275 -0.1312
 9311WAT     H228336   5.974   0.444   4.994 -1.0811 -0.4886 -1.1748
 9312WAT      O28337   0.244   0.896   2.440  0.2142  0.0042 -0.5858
 9312WAT     H128338   0.288   0.981   2.446  0.2837 -0.1421  1.9965
 9312WAT     H228339   0.165   0.906   2.494  0.7614 -1.8600  0.6296
 9313WAT      O28340   3.210   2.797   1.902  0.1240  0.4840  0.2807
 9313WAT     H128341   3.269   2.722   1.903 -0.5970 -0.0983  1.4333
 9313WAT     H228342   3.196   2.818   1.994 -0.9605  1.0010  0.0146
 9314WAT      O28343   1.532   4.754   4.507  0.4994 -0.2286 -0.7134
 9314WAT     H128344   1.503   4.827   4.452  0.1496  1.5726  1.6857
 9314WAT     H228345   1.559   4.795   4.589 -1.6975 -2.9209  1.5859
 9315WAT      O28346   1.836   5.795   0.929  0.7345  0.2132  0.1228
 9315WAT     H128347   1.742   5.808   0.938  0.9361  1.4291  0.7412
 9315WAT     H228348   1.850   5.782   0.835 -0.0809 -0.4111  0.0769
 9316WAT      O28349   2.345   1.584   3.155  0.4104  0.1796  0.2469
 9316WAT     H128350   2.303   1.664   3.188  2.9597  2.0474 -0.7185
 9316WAT     H228351   2.277   1.517   3.164 -2.4720  2.7477 -0.4264
 9317WAT      O28352   5.587   1.490   4.233  0.5415  0.2904 -0.2998
 9317WAT     H128353   5.680   1.475   4.220  0.5159  0.1684 -0.3442
 9317WAT     H228354   5.582   1.574   4.277  0.6638  0.3756 -0.4493
 9318WAT      O28355   7.601   2.559   2.293 -0.0701  1.0727  0.1343
 9318WAT     H128356   7.524   2.605   2.257 -0.9949  1.1194  2.0366
 9318WAT     H228357   7.573   2.532   2.380  0.5853 -2.8129 -0.7188
 9319WAT      O28358   5.657   4.383   4.721 -0.4077 -0.1783 -0.1987
 9319WAT     H128359   5.620   4.307   4.766 -1.5260  0.8582  0.6823
 9319WAT     H228360   5.582   4.439   4.703  0.6700  2.0754  1.7805
 9320WAT      O28361   2.501   4.861   6.036 -0.1085 -0.5154  0.1483
 9320WAT     H128362   2.429   4.803   6.061  0.1519 -1.6066 -1.4697
 9320WAT     H228363   2.548   4.877   6.118  0.2593 -3.2261  0.5477
 9321WAT      O28364   4.588   6.513   2.120  0.1591  0.4501 -0.1097
 9321WAT     H128365   4.646   6.578   2.080 -0.8590  1.4140 -0.0705
 9321WAT     H228366   4.501   6.554   2.118 -0.2907 -0.3867  1.0672
 9322WAT      O28367   6.068   7.044   5.217  0.0769 -0.4014  0.1562
 9322WAT     H128368   6.144   7.097   5.194  0.5346 -1.4362 -0.8357
 9322WAT     H228369   6.101   6.980   5.280  0.2935 -1.4788 -1.0160
 9323WAT      O28370   7.565   5.972   2.191  0.0783  0.1626  0.2975
 9323WAT     H128371   7.570   5.903   2.257 -0.0015 -1.4035 -1.2823
 9323WAT     H228372   7.624   6.040   2.224  0.9059 -1.0490  1.4416
 9324WAT      O28373   0.679   1.674   1.355 -0.1776 -0.3377  0.0967
 9324WAT     H128374   0.593   1.639   1.378 -0.6206  0.9019  0.4543
 9324WAT     H228375   0.740   1.623   1.408 -0.7344 -0.9266  0.1896
 9325WAT      O28376   1.848   4.580   4.561  0.4587  0.2709  0.0668
 9325WAT     H128377   1.768   4.544   4.599  1.4843 -1.6156  0.5986
 9325WAT     H228378   1.836   4.675   4.564 -0.2222  0.2159  3.6356
 9326WAT      O28379   3.106   5.537   5.828 -0.1012 -0.0039  0.2106
 9326WAT     H128380   3.012   5.525   5.814  0.3931 -1.5328 -2.6853
 9326WAT     H228381   3.128   5.476   5.898 -1.2150  0.1529  0.7113
 9327WAT      O28382   6.600   2.835   2.193 -0.8437  0.0470  0.0117
 9327WAT     H128383   6.640   2.920   2.210 -3.7287  1.3617  0.8205
 9327WAT     H228384   6.606   2.789   2.277  0.9311 -0.7232 -0.4886
 9328WAT      O28385   1.359   4.659   5.666  0.4616  0.0444  0.0377
 9328WAT     H128386   1.378   4.652   5.760 -2.3837  0.6154  0.7686
 9328WAT     H228387   1.358   4.753   5.649 -0.3411 -0.0107 -0.2383
 9329WAT      O28388   7.137   3.050   4.061  0.4083 -0.1557 -0.1739
 9329WAT     H128389   7.206   3.007   4.112  0.0939  0.9335  1.2490
 9329WAT     H228390   7.184   3.093   3.990  0.9549 -1.0918 -0.3939
 9330WAT      O28391   4.118   5.687   5.083  0.0203 -0.0561 -0.0015
 9330WAT     H128392   4.207   5.712   5.057 -0.2265  1.9203  0.8270
 9330WAT     H228393   4.089   5.760   5.138 -1.1360 -1.9018  1.9931
 9331WAT      O28394   3.235   6.028   0.013  0.0304 -0.5012 -0.3297
 9331WAT     H128395   3.228   6.123   0.016 -2.1588 -0.6163  0.2339
 9331WAT     H228396   3.258   6.009  -0.078  1.3974  0.5750 -0.2343
 9332WAT      O28397   6.749   4.685   2.339 -0.3091 -0.5084 -0.1894
 9332WAT     H128398   6.659   4.666   2.366 -0.6747  2.2168  0.9012
 9332WAT     H228399   6.782   4.743   2.408  1.9580 -0.6559 -1.0794
 9333WAT      O28400   5.574   1.451   4.982  0.0817  0.1237 -0.2085
 9333WAT     H128401   5.573   1.356   4.996  0.0748 -0.1758 -2.0589
 9333WAT     H228402   5.580   1.462   4.887  0.0097  1.9856 -0.0399
 9334WAT      O28403   3.330   0.610   4.309 -0.1541  0.4625 -0.1806
 9334WAT     H128404   3.397   0.621   4.376 -0.3400 -0.9797  0.2799
 9334WAT     H228405   3.249   0.641   4.351 -0.3432 -0.8137  0.4275
 9335WAT      O28406   1.071   4.789   1.205 -0.3159  0.4807  0.0178
 9335WAT     H128407   1.079   4.871   1.254 -0.1959 -0.4518  1.6298
 9335WAT     H228408   1.136   4.731   1.244 -0.9522 -0.6542 -0.5451
 9336WAT      O28409   3.337   2.786   5.825  0.7939 -0.1680  0.3361
 9336WAT     H128410   3.433   2.784   5.827  0.8155 -0.8780 -0.5834
 9336WAT     H228411   3.312   2.698   5.797 -0.1449 -0.0718  0.8370
 9337WAT      O28412   4.763   0.126   5.246  0.3462  0.5009 -0.0533
 9337WAT     H128413   4.706   0.123   5.322 -1.4129  1.6657 -1.2479
 9337WAT     H228414   4.719   0.073   5.180  0.9461  0.9099 -0.8061
 9338WAT      O28415   0.530   0.763   1.387 -0.0616  0.5297 -0.3544
 9338WAT     H128416   0.598   0.809   1.337  1.4080 -2.1110 -0.9693
 9338WAT     H228417   0.448   0.794   1.349  0.9104  1.2570 -1.9817
 9339WAT      O28418   6.041   4.631   4.728  0.1021  0.4104 -0.4987
 9339WAT     H128419   6.119   4.653   4.779 -0.7805  0.9049  0.6836
 9339WAT     H228420   6.012   4.547   4.764  0.9675 -0.5834 -2.0223
 9340WAT      O28421   3.469   4.008   5.962  0.3963 -0.0988 -0.1627
 9340WAT     H128422   3.507   4.075   5.906 -1.1497  0.7245 -0.2644
 9340WAT     H228423   3.520   4.014   6.044 -0.0724  1.5988  0.0417
 9341WAT      O28424   4.006   1.945   4.406 -0.1828 -0.3023  0.3231
 9341WAT     H128425   4.089   1.900   4.424  0.1168  0.4280  0.8351
 9341WAT     H228426   3.981   1.984   4.489 -1.5905 -1.3617  0.4322
 9342WAT      O28427   0.563   5.689   3.358 -0.0254 -0.0440  0.2326
 9342WAT     H128428   0.579   5.740   3.438 -0.3092 -0.2445  0.4221
 9342WAT     H228429   0.550   5.599   3.390  1.3380 -0.4037 -0.1690
 9343WAT      O28430   5.794   4.233   2.476  0.1593 -0.2144 -0.2576
 9343WAT     H128431   5.807   4.146   2.437 -0.5839 -0.2079 -0.5454
 9343WAT     H228432   5.709   4.227   2.519  1.5998 -0.6853  2.7343
 9344WAT      O28433   3.594   1.909   4.119 -0.5016 -0.6700 -1.0454
 9344WAT     H128434   3.542   1.838   4.081  1.7687 -3.0574  0.0287
 9344WAT     H228435   3.621   1.876   4.205  2.1144  0.7247 -1.2335
 9345WAT      O28436   0.968   3.980   2.604  0.7635  0.6278  0.4891
 9345WAT     H128437   1.010   4.057   2.643  0.2885  1.1621 -0.0445
 9345WAT     H228438   1.024   3.906   2.631  1.5601  1.2225  0.4980
 9346WAT      O28439   0.380   2.153   0.182  0.6202 -0.0389  0.2623
 9346WAT     H128440   0.403   2.202   0.103  1.5842 -0.3262  0.3525
 9346WAT     H228441   0.437   2.189   0.250 -0.7510  0.7570  1.0334
 9347WAT      O28442   1.876   5.929   2.064  0.5179  0.7840 -0.9933
 9347WAT     H128443   1.865   5.889   1.978 -0.4291 -0.4674 -0.3234
 9347WAT     H228444   1.870   5.856   2.126 -0.3238  1.8274  0.2200
 9348WAT      O28445   0.932   4.244   5.222  0.1993  0.3325  0.1929
 9348WAT     H128446   0.927   4.305   5.295 -0.7963  1.1228 -0.4985
 9348WAT     H228447   0.957   4.299   5.147  1.2850 -0.4737 -0.0579
 9349WAT      O28448   3.314   4.581   1.414 -0.1968 -0.0903 -0.6909
 9349WAT     H128449   3.264   4.505   1.383  0.2831 -0.1714 -1.2806
 9349WAT     H228450   3.261   4.617   1.485  0.3752 -2.0048  0.7948
 9350WAT      O28451   3.542   4.204   0.232  0.3084 -0.0892  0.2024
 9350WAT     H128452   3.533   4.223   0.138 -0.0005 -1.2117 -0.0136
 9350WAT     H228453   3.532   4.289   0.275 -0.6430  0.2819 -0.7090
 9351WAT      O28454   4.005   3.658   5.720 -0.0309  0.0139 -0.0340
 9351WAT     H128455   4.040   3.622   5.801 -0.7207 -1.2178 -0.2541
 9351WAT     H228456   3.965   3.741   5.746  0.2888 -0.0707  0.7682
 9352WAT      O28457   5.265   3.146   2.763 -0.3368 -0.3941 -0.2478
 9352WAT     H128458   5.283   3.064   2.716 -0.4747 -0.2110 -0.6283
 9352WAT     H228459   5.349   3.192   2.763  0.1360 -1.1774  1.2871
 9353WAT      O28460   2.181   4.528   4.349 -0.3443 -0.0798 -0.3640
 9353WAT     H128461   2.160   4.480   4.429  2.4753  1.6008  1.5512
 9353WAT     H228462   2.131   4.609   4.355  0.9785  0.7049  0.5225
 9354WAT      O28463   7.399   4.208   5.365 -0.0907 -0.5832  0.0272
 9354WAT     H128464   7.427   4.137   5.307 -1.6179  0.8727 -2.6627
 9354WAT     H228465   7.330   4.169   5.419 -0.1861 -1.3971 -0.6604
 9355WAT      O28466   6.074   4.959   5.682  0.1292 -0.2431 -0.5842
 9355WAT     H128467   6.032   5.044   5.695  2.6814  0.9314  0.9171
 9355WAT     H228468   6.082   4.923   5.770  1.8775 -0.5341 -0.8259
 9356WAT      O28469   1.993   0.327   5.565  0.1053 -0.2847 -0.5793
 9356WAT     H128470   2.052   0.272   5.617 -1.2936  0.2601  1.7196
 9356WAT     H228471   1.915   0.273   5.553 -0.6384  0.5619  0.2907
 9357WAT      O28472   4.556   4.167   2.130 -0.3307  0.2195 -0.2143
 9357WAT     H128473   4.644   4.154   2.166  0.2315 -0.2679 -1.6601
 9357WAT     H228474   4.498   4.169   2.206  0.7246 -1.2992  0.6837
 9358WAT      O28475   0.414   3.119   0.572  0.1048 -0.3053 -0.6222
 9358WAT     H128476   0.479   3.164   0.518 -1.3466  2.6117 -0.1363
 9358WAT     H228477   0.459   3.100   0.654  0.6487  0.7100 -0.6765
 9359WAT      O28478   7.526   6.440   5.130 -0.1603  0.5680  0.3890
 9359WAT     H128479   7.479   6.390   5.196  1.3193 -0.0950  0.9854
 9359WAT     H228480   7.575   6.506   5.179 -0.6184  1.4038 -0.2371
 9360WAT      O28481   6.245   3.914   1.222  0.7162 -0.0485 -0.4300
 9360WAT     H128482   6.212   4.004   1.229 -0.5591 -0.5141 -0.3377
 9360WAT     H228483   6.195   3.876   1.150  1.0572 -0.7871 -0.2786
 9361WAT      O28484   4.220   1.173   3.451  0.0334  0.1448 -0.8337
 9361WAT     H128485   4.189   1.184   3.361 -0.2713  0.6445 -0.6745
 9361WAT     H228486   4.152   1.214   3.505 -0.8690 -2.0495 -0.2093
 9362WAT      O28487   6.886   2.009   4.566 -0.0728  0.2615  0.2401
 9362WAT     H128488   6.891   1.929   4.619  0.7901 -2.0018 -2.9924
 9362WAT     H228489   6.973   2.047   4.571  0.7271 -1.2406 -1.2805
 9363WAT      O28490   3.225   4.349   0.105 -0.7150  0.1932  0.1436
 9363WAT     H128491   3.183   4.284   0.161 -1.1595  1.1609  0.9512
 9363WAT     H228492   3.304   4.305   0.073 -0.3118 -0.3011  1.7212
 9364WAT      O28493   6.756   3.003   4.334  0.1768  0.3436  0.0443
 9364WAT     H128494   6.718   3.090   4.348 -1.2081 -0.0706 -0.9133
 9364WAT     H228495   6.751   2.961   4.420 -1.4081  0.3853  0.0011
 9365WAT      O28496   3.246   1.518   5.564 -0.1257 -0.3197 -0.2119
 9365WAT     H128497   3.156   1.549   5.580  0.7178  1.7983  0.8669
 9365WAT     H228498   3.276   1.488   5.650  1.1235  1.7473  0.1425
 9366WAT      O28499   5.585   0.571   1.773 -0.4319  0.6734 -0.2760
 9366WAT     H128500   5.594   0.666   1.772 -0.0424  0.6330 -0.6108
 9366WAT     H228501   5.661   0.539   1.821 -0.7729  0.5491  0.1935
 9367WAT      O28502   0.538   5.405   3.354  0.2478  0.0225 -0.1349
 9367WAT     H128503   0.552   5.315   3.384  2.7495  0.7840  1.2350
 9367WAT     H228504   0.615   5.426   3.302  0.0937  1.6267  0.2317
 9368WAT      O28505   0.365   4.266   4.410  0.3024 -0.0434 -0.2283
 9368WAT     H128506   0.431   4.241   4.475 -0.4397 -1.8277 -0.0809
 9368WAT     H228507   0.292   4.301   4.461 -0.1234 -1.0843 -0.0821
 9369WAT      O28508   2.872   1.708   4.264 -0.7094 -0.2555  0.0552
 9369WAT     H128509   2.921   1.673   4.190 -0.5305  1.0738 -0.4866
 9369WAT     H228510   2.937   1.720   4.333 -0.7729 -0.9820  0.2425
 9370WAT      O28511   3.274   0.663   3.289  0.7859  0.0632  0.3242
 9370WAT     H128512   3.289   0.632   3.200  1.2955 -1.1054  0.7844
 9370WAT     H228513   3.187   0.701   3.287  0.5947 -0.3931 -0.5673
 9371WAT      O28514   1.195   6.074   2.940  0.4666 -0.0056 -0.0443
 9371WAT     H128515   1.219   6.161   2.970 -0.3414 -0.1766  1.1623
 9371WAT     H228516   1.200   6.019   3.018  0.4238 -0.9251 -0.6693
 9372WAT      O28517   1.656   2.406   4.813  0.4150  0.2379 -0.5843
 9372WAT     H128518   1.639   2.357   4.894 -1.8976  1.1673 -0.4323
 9372WAT     H228519   1.729   2.464   4.836 -0.8279  1.2002  1.2188
 9373WAT      O28520   1.581   5.141   0.891 -0.1806 -0.3753  0.0268
 9373WAT     H128521   1.677   5.143   0.885  0.0005 -3.0327  0.7382
 9373WAT     H228522   1.560   5.048   0.897 -2.8186  0.1648  0.1217
 9374WAT      O28523   1.853   2.037   2.650  0.3376 -0.3077  0.7020
 9374WAT     H128524   1.944   2.052   2.676  0.0735  0.0270  1.4585
 9374WAT     H228525   1.821   2.123   2.625 -0.3683 -0.0399  2.4147
 9375WAT      O28526   5.787   4.415   5.362 -0.4853  0.0431 -0.5488
 9375WAT     H128527   5.694   4.436   5.359 -0.7861 -1.2063 -0.3428
 9375WAT     H228528   5.807   4.379   5.276 -0.3915 -0.4924 -0.3052
 9376WAT      O28529   0.322   3.890   2.344  0.1408  0.4310  0.5855
 9376WAT     H128530   0.319   3.794   2.335  2.7314  0.3475 -0.4742
 9376WAT     H228531   0.407   3.914   2.306  0.1241  3.0363  1.9926
 9377WAT      O28532   0.379   4.729   4.703 -0.3825  0.4624 -0.6130
 9377WAT     H128533   0.462   4.775   4.717 -0.1041 -0.3525  0.5419
 9377WAT     H228534   0.314   4.799   4.694  0.1082  1.0963  0.5709
 9378WAT      O28535   5.287   0.181   0.608 -0.4175  0.0728 -0.2762
 9378WAT     H128536   5.310   0.089   0.605 -0.3691  0.1075 -1.5005
 9378WAT     H228537   5.193   0.182   0.626 -0.1234 -0.1500  1.4375
 9379WAT      O28538   7.589   3.561   3.435 -0.0735 -0.6718 -0.0651
 9379WAT     H128539   7.556   3.472   3.428 -1.4208 -0.2233  0.1178
 9379WAT     H228540   7.610   3.572   3.528 -2.8992  0.1229  0.5915
 9380WAT      O28541   3.298   1.034   3.544  0.0060 -0.1854 -0.3902
 9380WAT     H128542   3.308   0.942   3.519  0.3299 -0.2244 -0.1141
 9380WAT     H228543   3.277   1.078   3.462  0.1142 -0.4616 -0.5694
 9381WAT      O28544   3.279   1.897   5.247  0.0884 -0.2896 -0.4015
 9381WAT     H128545   3.307   1.806   5.250 -2.3391 -1.2214 -2.1638
 9381WAT     H228546   3.208   1.902   5.312 -1.8602 -0.5826 -2.3786
 9382WAT      O28547   6.843   1.853   0.682  0.3019  0.2718  0.1830
 9382WAT     H128548   6.878   1.892   0.603  1.8187 -2.2997 -0.5305
 9382WAT     H228549   6.909   1.872   0.749 -0.2480  1.1469  0.4916
 9383WAT      O28550   0.391   5.181   5.282 -0.0291  0.3934 -0.8788
 9383WAT     H128551   0.396   5.117   5.353 -0.1226  1.5154  0.1611
 9383WAT     H228552   0.324   5.243   5.309 -0.8872  0.2405 -2.4858
 9384WAT      O28553   1.313   4.112   0.953  0.4960  0.1747  0.5808
 9384WAT     H128554   1.289   4.183   0.893  0.0395 -1.0694 -0.7726
 9384WAT     H228555   1.294   4.146   1.040 -1.7884  0.9359 -0.1684
 9385WAT      O28556   4.919   3.577   4.833 -0.7561 -0.4553  0.0916
 9385WAT     H128557   4.962   3.566   4.749 -0.6047  0.6241  0.0045
 9385WAT     H228558   4.984   3.622   4.888 -0.9026 -1.0104  0.7423
 9386WAT      O28559   1.345   5.481   1.596 -0.5682 -0.1293 -0.2264
 9386WAT     H128560   1.270   5.468   1.653 -0.0457  1.5405  0.9036
 9386WAT     H228561   1.381   5.565   1.621  1.8792 -0.9986 -0.5034
 9387WAT      O28562   2.237   4.842   1.810  0.6800  0.7353 -0.2966
 9387WAT     H128563   2.164   4.902   1.793  0.1825  0.4927  0.8615
 9387WAT     H228564   2.262   4.862   1.901  2.0392  0.7908 -0.6666
 9388WAT      O28565   4.896   0.693   5.606  0.7636 -0.0059 -0.5487
 9388WAT     H128566   4.810   0.681   5.565  0.0041 -0.4276  1.0845
 9388WAT     H228567   4.909   0.613   5.657  1.2329  0.8743  0.7642
 9389WAT      O28568   1.400   6.563   1.525 -0.5567 -0.0841  0.0864
 9389WAT     H128569   1.429   6.575   1.435 -0.3705 -1.7380 -0.1011
 9389WAT     H228570   1.442   6.635   1.573  1.9830 -0.9720 -0.6065
 9390WAT      O28571   4.556   1.302   4.617 -0.5051 -0.2522  0.1782
 9390WAT     H128572   4.491   1.371   4.610  0.1758  0.3521 -0.4600
 9390WAT     H228573   4.615   1.318   4.542  0.7039 -0.4186  1.0664
 9391WAT      O28574   3.623   5.420   2.978  0.5502 -0.3666 -0.1079
 9391WAT     H128575   3.671   5.489   3.024 -2.0706  0.6910  1.2150
 9391WAT     H228576   3.615   5.349   3.041 -0.2879 -0.2093 -0.0276
 9392WAT      O28577   6.394   6.625   2.635 -0.1345  0.2039 -0.2931
 9392WAT     H128578   6.447   6.552   2.604  1.9188  1.7626 -0.7344
 9392WAT     H228579   6.316   6.585   2.674  0.4606 -2.1212 -1.3504
 9393WAT      O28580   0.564   4.492   1.007 -0.1962  0.3878 -0.0038
 9393WAT     H128581   0.648   4.534   0.988 -0.4597  1.4759  1.0996
 9393WAT     H228582   0.502   4.536   0.949 -0.0499 -0.3568 -0.7564
 9394WAT      O28583   4.682   3.745   4.358 -0.6564  0.5034  0.4579
 9394WAT     H128584   4.639   3.666   4.392 -1.1520  0.9675  0.9246
 9394WAT     H228585   4.691   3.728   4.264  0.2381 -0.5664  0.7083
 9395WAT      O28586   5.852   3.295   1.620  0.4187 -0.0229 -0.8173
 9395WAT     H128587   5.864   3.276   1.713 -1.7707  3.2271  0.2844
 9395WAT     H228588   5.934   3.337   1.593  0.5951  0.1324 -0.0379
 9396WAT      O28589   2.464   0.394   2.321  0.5310 -0.2395  0.0275
 9396WAT     H128590   2.394   0.447   2.282  1.7348  1.2431 -0.1785
 9396WAT     H228591   2.522   0.373   2.248  1.4147  0.3545  0.5347
 9397WAT      O28592   2.240   3.466   4.499  0.4238  0.0195 -0.1124
 9397WAT     H128593   2.333   3.488   4.485  0.8294 -1.1232  0.7000
 9397WAT     H228594   2.219   3.505   4.583 -0.1143  1.0711 -0.7157
 9398WAT      O28595   1.916   1.537   2.691  0.0725  0.2270  0.3405
 9398WAT     H128596   1.824   1.529   2.714  0.1422 -0.0677  0.5169
 9398WAT     H228597   1.957   1.578   2.768  0.2427 -0.4417  0.6136
 9399WAT      O28598   2.603   4.821   5.077 -0.3812  0.9333  0.1557
 9399WAT     H128599   2.616   4.910   5.108  0.5792  1.0942 -0.6666
 9399WAT     H228600   2.644   4.766   5.145  1.0256  1.2433 -0.4137
 9400WAT      O28601   0.055   5.538   0.493  0.2241  0.4278  0.3558
 9400WAT     H128602   0.095   5.624   0.482  0.7780  0.1336  0.0432
 9400WAT     H228603   0.106   5.481   0.436 -0.8205  0.1036 -0.2763
 9401WAT      O28604   2.658   0.184   2.794  0.3650  0.2189 -0.3589
 9401WAT     H128605   2.685   0.111   2.738  0.3071  0.1497 -0.2970
 9401WAT     H228606   2.623   0.249   2.733 -0.8019 -0.3443 -0.3111
 9402WAT      O28607   4.805   6.877   3.548 -0.0986  0.5258 -0.3807
 9402WAT     H128608   4.833   6.813   3.482 -0.7841 -0.8498  0.6148
 9402WAT     H228609   4.871   6.946   3.543  1.8377 -1.1863 -0.1385
 9403WAT      O28610   3.444   5.213   2.769  0.3252  0.4557 -0.7503
 9403WAT     H128611   3.364   5.228   2.819 -0.5505  0.4554 -2.1108
 9403WAT     H228612   3.501   5.165   2.829  0.7783  3.5800  1.5763
 9404WAT      O28613   1.499   4.007   5.832  0.4610 -0.1286 -0.3122
 9404WAT     H128614   1.525   4.055   5.911 -1.2890 -0.7844  0.7078
 9404WAT     H228615   1.556   3.930   5.831  0.5159 -0.1033  0.3062
 9405WAT      O28616   6.620   5.602   4.062  0.5692  0.2323 -0.4456
 9405WAT     H128617   6.638   5.577   4.152 -0.5855 -1.0381 -0.5379
 9405WAT     H228618   6.546   5.662   4.067 -0.6996 -1.2597 -0.6366
 9406WAT      O28619   2.796   0.031   0.679 -0.1426 -0.3872  0.2422
 9406WAT     H128620   2.845  -0.050   0.673 -0.4126 -0.4969 -0.5979
 9406WAT     H228621   2.822   0.081   0.602  0.7546  0.7517  1.2344
 9407WAT      O28622   1.295   1.123   1.615  0.3958  0.3207  0.5935
 9407WAT     H128623   1.209   1.082   1.626  0.7643 -1.1237 -1.4249
 9407WAT     H228624   1.275   1.215   1.595 -0.8265 -0.3978 -1.7986
 9408WAT      O28625   6.365   6.017   0.821 -0.2250 -0.2883  0.5773
 9408WAT     H128626   6.329   6.088   0.875 -1.5669 -0.6871  0.2435
 9408WAT     H228627   6.341   5.937   0.868 -1.1095 -0.6240 -0.4154
 9409WAT      O28628   0.880   0.494   2.146  0.5338 -0.4332 -0.0056
 9409WAT     H128629   0.872   0.427   2.214 -1.6655  1.7417  2.1066
 9409WAT     H228630   0.841   0.455   2.069 -0.4739 -1.7001  1.0952
 9410WAT      O28631   5.707   5.442   4.831 -0.0883  0.3254 -0.3098
 9410WAT     H128632   5.789   5.437   4.880 -0.2065 -0.2900 -0.1719
 9410WAT     H228633   5.642   5.402   4.888 -0.5340  1.0130 -0.3258
 9411WAT      O28634   3.556   4.774   1.378 -0.8264  0.4010  0.2030
 9411WAT     H128635   3.495   4.701   1.378  2.5639 -2.7421 -0.1210
 9411WAT     H228636   3.530   4.828   1.453 -3.3972 -1.1921  0.5516
 9412WAT      O28637   0.084   5.228   6.190  0.7243 -0.0214  0.1813
 9412WAT     H128638   0.132   5.310   6.182  1.2955 -0.3551  0.1197
 9412WAT     H228639   0.113   5.192   6.275 -2.6261  1.8067  2.3074
 9413WAT      O28640   6.136   3.692   2.695  0.0645  0.1874  0.0629
 9413WAT     H128641   6.114   3.765   2.753  2.0607  0.6272  0.3547
 9413WAT     H228642   6.223   3.714   2.661 -0.3293 -0.8911 -1.7765
 9414WAT      O28643   1.009   0.231   4.819 -0.3956 -0.1414 -0.1660
 9414WAT     H128644   0.933   0.237   4.878  0.7637  0.1431  1.3703
 9414WAT     H228645   1.084   0.232   4.878  0.7923 -1.2026 -1.6170
 9415WAT      O28646   7.318   4.721   3.858  0.1228 -0.5420 -0.6217
 9415WAT     H128647   7.393   4.779   3.872 -0.4470  0.2055 -0.5986
 9415WAT     H228648   7.357   4.637   3.836  0.9942 -0.7096  1.3481
 9416WAT      O28649   0.321   1.575   2.987  0.2770  0.4024 -0.9296
 9416WAT     H128650   0.389   1.512   2.961  0.0974 -0.1404 -0.1096
 9416WAT     H228651   0.321   1.572   3.083  1.3369  2.7866 -0.7820
 9417WAT      O28652   4.645   5.529   1.105 -0.3118 -0.5296  0.1791
 9417WAT     H128653   4.633   5.460   1.040  1.1528 -0.9602  0.3305
 9417WAT     H228654   4.739   5.547   1.104 -0.7657  2.2330 -0.6186
 9418WAT      O28655   5.733   4.543   2.454 -0.4204  0.4045  0.9024
 9418WAT     H128656   5.681   4.484   2.510 -1.7145  0.3709 -0.2841
 9418WAT     H228657   5.724   4.629   2.495 -1.7104  0.4596  0.5461
 9419WAT      O28658   7.489   2.480   2.925  0.4713 -0.2511 -0.2167
 9419WAT     H128659   7.409   2.470   2.976  0.3970  1.2960  0.0307
 9419WAT     H228660   7.550   2.417   2.963 -0.4988 -1.1886 -0.1691
 9420WAT      O28661   4.993   3.917   0.301  0.2370  0.2434  0.0076
 9420WAT     H128662   4.942   3.957   0.372  1.3432 -0.1512  1.0632
 9420WAT     H228663   5.084   3.923   0.331  0.6922 -0.3200 -1.2013
 9421WAT      O28664   3.362   1.922   1.717  0.2925  0.2194  0.2709
 9421WAT     H128665   3.312   2.004   1.717  0.9855  0.6834 -1.2726
 9421WAT     H228666   3.438   1.940   1.772  0.0820  0.3723  0.5150
 9422WAT      O28667   0.728   5.908   1.603 -0.0740 -0.0029 -0.2312
 9422WAT     H128668   0.641   5.934   1.633 -0.1391  0.2742 -0.6457
 9422WAT     H228669   0.716   5.819   1.569  0.3008 -0.9258  1.8643
 9423WAT      O28670   4.491   1.035   0.607  0.9161 -0.1699 -0.4593
 9423WAT     H128671   4.582   1.049   0.631  0.2338  0.7018  1.8762
 9423WAT     H228672   4.441   1.088   0.669 -1.2322 -1.5437 -0.8973
 9424WAT      O28673   6.836   0.396   1.207  0.3427  0.0688  0.3151
 9424WAT     H128674   6.829   0.466   1.271  0.9189  0.2931  0.1471
 9424WAT     H228675   6.754   0.400   1.157  1.1197  1.8950 -0.9496
 9425WAT      O28676   2.179   2.850   3.270  0.5532 -0.2290  0.1872
 9425WAT     H128677   2.207   2.817   3.184  2.2768 -0.3814  0.7706
 9425WAT     H228678   2.235   2.926   3.285  1.1642 -0.9458  1.7103
 9426WAT      O28679   5.921   2.514   5.582 -0.6448  0.1269  0.2326
 9426WAT     H128680   5.986   2.517   5.652 -1.2483  3.5264  0.8421
 9426WAT     H228681   5.877   2.430   5.593  1.8431 -1.1239  1.4278
 9427WAT      O28682   6.363   5.428   3.326  0.4738  0.2114  0.4352
 9427WAT     H128683   6.376   5.517   3.361 -0.0104  1.5151 -2.3897
 9427WAT     H228684   6.452   5.394   3.314  0.7095  0.8510  0.3296
 9428WAT      O28685   3.432   2.082   0.389 -0.5249 -0.3955  0.4914
 9428WAT     H128686   3.474   2.152   0.340  0.1685  0.1612  1.8188
 9428WAT     H228687   3.423   2.117   0.478 -1.0604 -1.6318  0.9510
 9429WAT      O28688   2.952   2.235   0.027  0.7224 -0.4893  0.1312
 9429WAT     H128689   2.901   2.180   0.087  2.0892 -0.3444  1.4873
 9429WAT     H228690   3.018   2.277   0.082  0.9451  1.0233 -1.2055
 9430WAT      O28691   4.959   0.893   1.204  0.2093  0.0180  0.5618
 9430WAT     H128692   4.903   0.833   1.155  2.2420 -0.2887 -1.5672
 9430WAT     H228693   4.999   0.839   1.272 -1.0579 -0.0381  1.3001
 9431WAT      O28694   6.755   3.481   2.026  0.2239  0.5044  1.0039
 9431WAT     H128695   6.700   3.417   2.070  1.1288 -0.0475  1.3570
 9431WAT     H228696   6.762   3.449   1.936  1.8854 -0.7567  1.5292
 9432WAT      O28697   6.700   4.089   1.043  0.4783  0.5126 -0.5337
 9432WAT     H128698   6.657   4.078   1.127  1.2100  0.9164 -0.0926
 9432WAT     H228699   6.778   4.141   1.063  1.5666 -0.8051 -1.1769
 9433WAT      O28700   4.880   4.983   2.493 -0.3448 -0.7301 -0.3648
 9433WAT     H128701   4.957   5.038   2.505 -0.5455 -0.8029  1.5582
 9433WAT     H228702   4.912   4.893   2.504 -0.5498 -0.8150 -0.4536
 9434WAT      O28703   6.632   0.171   2.885  0.1726  0.4694  0.1776
 9434WAT     H128704   6.569   0.116   2.932 -0.3171  1.3824  0.5983
 9434WAT     H228705   6.688   0.108   2.839 -0.9493 -0.3670 -0.0953
 9435WAT      O28706   0.645   3.330   0.161  0.2415  0.0880  0.1726
 9435WAT     H128707   0.591   3.398   0.201  0.3605  0.5604 -0.4610
 9435WAT     H228708   0.583   3.279   0.109  0.5526  1.3337 -1.5001
 9436WAT      O28709   4.550   4.696   3.747 -0.2517  0.4069  0.4500
 9436WAT     H128710   4.567   4.627   3.811  2.6192 -0.7211 -1.3137
 9436WAT     H228711   4.571   4.778   3.793 -2.2950  0.0533  2.1260
 9437WAT      O28712   7.637   2.568   6.137  0.4169  0.6962  0.7003
 9437WAT     H128713   7.606   2.602   6.221 -2.4877 -0.2876  0.1496
 9437WAT     H228714   7.619   2.474   6.142 -1.0723  0.8002 -1.4493
 9438WAT      O28715   2.955   7.046   2.078  0.5992  0.2107 -0.1749
 9438WAT     H128716   3.005   7.128   2.082 -0.9335  1.2444 -1.0417
 9438WAT     H228717   2.878   7.068   2.026  1.3124 -2.4237 -2.5637
 9439WAT      O28718   3.941   1.536   0.300 -0.5160 -0.3432  0.3762
 9439WAT     H128719   4.013   1.527   0.363  0.2306 -0.7326 -0.5170
 9439WAT     H228720   3.901   1.621   0.322  0.5218  0.1159  0.5806
 9440WAT      O28721   5.142   6.757   2.120 -0.4400  0.4607 -0.3929
 9440WAT     H128722   5.120   6.665   2.111 -0.5601  0.3556  0.7952
 9440WAT     H228723   5.237   6.758   2.132 -0.4798  0.4653 -0.0782
 9441WAT      O28724   0.929   5.715   3.400 -0.0798  0.4186  0.4293
 9441WAT     H128725   0.915   5.732   3.307 -1.8785  0.9765  0.7664
 9441WAT     H228726   0.878   5.636   3.418  0.1421  0.3935  0.9737
 9442WAT      O28727   6.792   6.150   3.686 -0.1099 -0.3728 -0.8859
 9442WAT     H128728   6.859   6.086   3.709  0.2330 -0.3389 -1.7566
 9442WAT     H228729   6.713   6.120   3.732  0.4410 -0.5353 -0.0343
 9443WAT      O28730   6.607   6.068   0.549 -0.0592  0.7272  0.8093
 9443WAT     H128731   6.513   6.055   0.558  0.0291 -0.5243  0.1336
 9443WAT     H228732   6.639   6.077   0.638 -0.5253 -1.1452  1.2054
 9444WAT      O28733   3.961   0.104   5.656 -0.2368 -0.0636 -0.2755
 9444WAT     H128734   3.981   0.197   5.665  0.9511 -0.3023 -0.1771
 9444WAT     H228735   3.938   0.076   5.745 -1.3683  0.2861 -0.4470
 9445WAT      O28736   6.925   1.461   3.782 -0.5435  0.4850  0.6570
 9445WAT     H128737   6.930   1.425   3.693 -0.1742  0.0347  0.8555
 9445WAT     H228738   7.015   1.488   3.802 -0.8139  1.5591  0.5036
 9446WAT      O28739   2.518   0.669   3.824  0.2942 -0.1421 -0.1000
 9446WAT     H128740   2.449   0.644   3.885 -0.1490 -0.3866 -0.6869
 9446WAT     H228741   2.516   0.601   3.757 -0.6304  1.1805 -1.4979
 9447WAT      O28742   2.775   0.610   3.860  0.3764 -0.0355 -0.5166
 9447WAT     H128743   2.812   0.665   3.929  0.0276 -1.8229  1.1759
 9447WAT     H228744   2.690   0.649   3.841  0.0580 -0.0572  0.7789
 9448WAT      O28745   7.225   6.516   2.109 -0.2029  0.8270  0.2003
 9448WAT     H128746   7.271   6.493   2.189  0.2990  0.1230 -0.2770
 9448WAT     H228747   7.245   6.445   2.048  0.0702  1.7419 -0.8124
 9449WAT      O28748   6.981   2.157   1.566 -0.1646  0.1328  0.1622
 9449WAT     H128749   6.994   2.063   1.553  0.1347  0.3076 -0.8658
 9449WAT     H228750   6.887   2.165   1.580  0.0547 -0.5343  2.3419
 9450WAT      O28751   6.520   1.175   4.796 -0.2799 -0.0357  0.4759
 9450WAT     H128752   6.490   1.178   4.887 -2.0517  1.0641 -0.1061
 9450WAT     H228753   6.469   1.105   4.756  1.0760 -1.0747  0.4678
 9451WAT      O28754   4.579   4.621   5.884 -0.5380  0.0536  0.0067
 9451WAT     H128755   4.498   4.635   5.932 -0.9497  1.5699 -1.0743
 9451WAT     H228756   4.584   4.525   5.874 -0.9008 -0.2349  2.1868
 9452WAT      O28757   0.841   4.754   4.244 -0.4065  0.2052 -0.0576
 9452WAT     H128758   0.760   4.797   4.272 -1.5783 -0.9299 -1.4798
 9452WAT     H228759   0.903   4.826   4.231 -2.2394  1.5410 -2.2177
 9453WAT      O28760   5.683   1.474   2.057  0.1745 -0.4404 -0.2397
 9453WAT     H128761   5.675   1.559   2.100  2.5476 -0.7480  0.9971
 9453WAT     H228762   5.643   1.412   2.119  1.8317 -0.6394  0.6840
 9454WAT      O28763   4.285   0.821   3.670  0.2793  0.5140  0.1713
 9454WAT     H128764   4.201   0.865   3.655  0.0482  0.1857  0.4712
 9454WAT     H228765   4.317   0.800   3.582 -1.4745 -2.1740  0.0369
 9455WAT      O28766   6.130   2.067   4.308  0.0010  0.1779  0.0780
 9455WAT     H128767   6.225   2.076   4.312 -0.1532  1.6659  1.3655
 9455WAT     H228768   6.105   2.034   4.395 -0.6472 -0.4612 -0.3388
 9456WAT      O28769   7.085   5.882   3.017  0.1115 -0.1723  0.0946
 9456WAT     H128770   7.031   5.936   3.075  2.3956  2.3681  0.0254
 9456WAT     H228771   7.135   5.826   3.077 -1.4066 -1.4652  0.2220
 9457WAT      O28772   0.677   3.660   0.273  0.5006  0.2847  0.1695
 9457WAT     H128773   0.739   3.713   0.324 -0.4431 -0.8276  2.5804
 9457WAT     H228774   0.594   3.668   0.319  0.0060 -2.1712 -0.1536
 9458WAT      O28775   4.404   0.193   0.075 -0.4795  0.3284 -0.2789
 9458WAT     H128776   4.353   0.112   0.072  0.4959 -0.2731 -1.2665
 9458WAT     H228777   4.342   0.259   0.103 -1.4720 -0.6307 -0.1480
 9459WAT      O28778   4.468   2.127   4.959  0.0250  0.0908 -0.2830
 9459WAT     H128779   4.413   2.063   5.004  0.1311  1.0902  1.3360
 9459WAT     H228780   4.557   2.095   4.972 -0.0038 -0.1923 -0.7455
 9460WAT      O28781   4.618   1.263   0.218  0.2858 -0.1212 -0.5245
 9460WAT     H128782   4.551   1.216   0.267 -0.1434  1.0613  0.0535
 9460WAT     H228783   4.607   1.234   0.128 -0.3136 -0.7171 -0.2613
 9461WAT      O28784   5.308   0.931   4.933  0.6411  0.3204  0.2786
 9461WAT     H128785   5.246   0.872   4.977  0.1111  0.8569  0.2628
 9461WAT     H228786   5.334   0.993   5.001  0.5578  0.5693  0.0841
 9462WAT      O28787   2.505   6.033   5.090 -0.3384  0.2489  0.4595
 9462WAT     H128788   2.586   6.067   5.127 -0.2024  2.0932 -1.3597
 9462WAT     H228789   2.509   5.938   5.105  2.0149  0.3300  0.6596
 9463WAT      O28790   0.606   1.290   1.330  0.2798 -0.0783 -0.2970
 9463WAT     H128791   0.687   1.280   1.280  0.5289 -0.2570  0.1330
 9463WAT     H228792   0.538   1.252   1.274  0.6844 -1.0441 -0.1499
 9464WAT      O28793   5.848   3.784   2.148  0.0222 -0.0442 -0.2096
 9464WAT     H128794   5.925   3.816   2.101  0.2996  1.5331  1.2095
 9464WAT     H228795   5.879   3.707   2.196  0.7480  0.6211  0.4064
 9465WAT      O28796   4.430   2.749   3.948  0.0593  0.3300  0.3086
 9465WAT     H128797   4.467   2.833   3.918 -2.6822  1.1468 -1.0669
 9465WAT     H228798   4.484   2.683   3.905  2.3973  1.2940  1.5625
 9466WAT      O28799   4.775   4.742   2.680  0.1512 -0.6602 -0.0670
 9466WAT     H128800   4.699   4.800   2.682  0.2995 -0.4632 -0.1042
 9466WAT     H228801   4.840   4.787   2.735  0.6066 -0.3243 -0.8745
 9467WAT      O28802   0.930   1.531   1.182  0.4771  0.5777 -0.0712
 9467WAT     H128803   0.948   1.457   1.240 -1.5123 -0.0126 -0.1549
 9467WAT     H228804   0.977   1.604   1.222  1.2861 -0.3920  0.8145
 9468WAT      O28805   4.612   5.787   0.211  0.3645 -0.3755 -0.2858
 9468WAT     H128806   4.661   5.829   0.140  0.5548 -0.0911  0.0074
 9468WAT     H228807   4.523   5.822   0.202  0.2349 -0.8110 -0.7544
 9469WAT      O28808   1.016   1.156   5.433 -0.6050 -0.6529 -0.9602
 9469WAT     H128809   0.987   1.241   5.400 -0.2009 -0.0777  0.1405
 9469WAT     H228810   1.073   1.176   5.507  1.2363 -1.8113 -1.9792
 9470WAT      O28811   4.805   6.226   3.743 -0.6100 -0.0791  0.7366
 9470WAT     H128812   4.723   6.233   3.793 -1.3424 -0.6476 -0.3440
 9470WAT     H228813   4.831   6.317   3.727 -1.1697  0.1113  0.8898
 9471WAT      O28814   7.201   4.265   1.262 -0.1122  0.1504  0.3082
 9471WAT     H128815   7.108   4.275   1.241 -0.4219 -0.6440  1.2549
 9471WAT     H228816   7.242   4.343   1.224 -0.7042 -0.8706 -2.7027
 9472WAT      O28817   2.475   6.515   3.597 -0.1527 -0.4521  0.0876
 9472WAT     H128818   2.454   6.540   3.687 -2.2280  0.4305 -0.5755
 9472WAT     H228819   2.528   6.435   3.606  0.9977  0.4542  2.0908
 9473WAT      O28820   1.789   5.317   4.083 -0.4736 -0.0948 -0.2878
 9473WAT     H128821   1.721   5.384   4.090 -0.2314  0.2182 -0.8532
 9473WAT     H228822   1.743   5.237   4.060 -0.7501 -0.0962  0.2473
 9474WAT      O28823   1.736   1.659   2.278  0.2046 -1.0284  0.1192
 9474WAT     H128824   1.726   1.600   2.203  0.0024 -1.4600  0.4869
 9474WAT     H228825   1.824   1.643   2.310  0.9181  0.3390 -1.0250
 9475WAT      O28826   7.071   1.918   1.027 -0.0764  0.1077  0.1383
 9475WAT     H128827   7.082   1.825   1.007  0.3421  0.4485 -1.3818
 9475WAT     H228828   7.149   1.941   1.076  0.1174 -0.2047 -0.0161
 9476WAT      O28829   2.172   5.316   3.662 -0.1162  0.4617 -0.0147
 9476WAT     H128830   2.104   5.358   3.714 -1.5537 -1.7695  0.0275
 9476WAT     H228831   2.184   5.231   3.703  0.1047 -0.6012 -2.1508
 9477WAT      O28832   3.027   4.096   1.166 -0.3349 -0.5643  0.1929
 9477WAT     H128833   3.029   4.001   1.176  0.9887 -0.5753  0.0114
 9477WAT     H228834   2.971   4.127   1.237 -0.1936 -1.4326  0.6873
 9478WAT      O28835   2.701   4.656   4.225  0.7930 -0.0531 -0.0628
 9478WAT     H128836   2.729   4.677   4.136  1.5796  1.7649  0.5621
 9478WAT     H228837   2.753   4.579   4.248  0.9097 -0.2759 -1.0174
 9479WAT      O28838   1.401   5.182   3.661 -0.2684 -0.2640 -0.4483
 9479WAT     H128839   1.367   5.093   3.654 -0.0826 -0.3025 -0.9030
 9479WAT     H228840   1.323   5.237   3.674 -0.3883 -0.4863 -0.2440
 9480WAT      O28841   4.629   4.920   4.179  0.1400 -0.7109 -0.0277
 9480WAT     H128842   4.593   4.837   4.209 -0.2333 -0.5467 -0.0180
 9480WAT     H228843   4.591   4.986   4.238 -0.1836 -0.4473 -0.5276
 9481WAT      O28844   5.670   1.826   2.754 -0.5675  0.3117 -0.1885
 9481WAT     H128845   5.647   1.832   2.847  1.6023  1.8028  0.3274
 9481WAT     H228846   5.758   1.863   2.749  0.6849 -2.5836 -2.3878
 9482WAT      O28847   3.766   1.238   2.512  0.2558 -0.6726  0.4734
 9482WAT     H128848   3.812   1.311   2.552 -2.1882  0.2899  1.7352
 9482WAT     H228849   3.789   1.163   2.567  1.4916 -0.5470  0.1506
 9483WAT      O28850   2.367   0.095   4.114  0.5519  0.1727 -0.3919
 9483WAT     H128851   2.405   0.046   4.041  0.8635 -2.2511  1.2905
 9483WAT     H228852   2.437   0.152   4.144  1.4703 -1.0940 -0.0561
 9484WAT      O28853   6.549   1.373   1.797  0.0484  0.3460  0.0264
 9484WAT     H128854   6.460   1.376   1.761  0.4356 -0.9631 -1.1508
 9484WAT     H228855   6.548   1.435   1.870 -1.7824  0.4545 -0.0491
 9485WAT      O28856   2.650   5.348   0.186  0.2621 -0.3206 -0.2691
 9485WAT     H128857   2.608   5.274   0.141 -0.9941 -0.0637  0.4192
 9485WAT     H228858   2.613   5.426   0.144  2.5424 -0.0178 -1.8649
 9486WAT      O28859   5.170   7.103   1.277 -0.0549 -0.6996  0.0962
 9486WAT     H128860   5.181   7.197   1.260  1.0018 -0.4232  2.0018
 9486WAT     H228861   5.084   7.096   1.319 -1.4692 -1.0374 -2.6553
 9487WAT      O28862   4.469   1.628   2.213  0.1355 -0.1862  0.1579
 9487WAT     H128863   4.434   1.644   2.301  1.8436  0.5576  0.7468
 9487WAT     H228864   4.563   1.643   2.222  0.3441 -0.1204 -1.8116
 9488WAT      O28865   3.889   3.172   2.781  0.2728 -0.0153 -0.0140
 9488WAT     H128866   3.796   3.149   2.777  0.5235 -1.2419  0.7512
 9488WAT     H228867   3.896   3.232   2.855  0.1546 -0.2675  0.2023
 9489WAT      O28868   2.210   3.057   2.660 -0.1685  0.0140 -0.0191
 9489WAT     H128869   2.193   3.095   2.746 -1.8611  0.3923 -0.4863
 9489WAT     H228870   2.302   3.031   2.662  0.0112  0.7291  1.6209
 9490WAT      O28871   3.970   2.406   0.468 -0.6949  0.1695  0.4546
 9490WAT     H128872   3.977   2.492   0.508 -2.7613  0.0911  1.1139
 9490WAT     H228873   4.055   2.391   0.426  0.0952  2.0046  1.3228
 9491WAT      O28874   7.436   1.336   4.900  0.0264  0.9340  0.1090
 9491WAT     H128875   7.401   1.392   4.969 -2.2100 -1.5519  1.1874
 9491WAT     H228876   7.421   1.247   4.931  1.9249 -0.3271 -2.1980
 9492WAT      O28877   1.670   6.614   3.214 -0.1180 -0.0540 -0.0294
 9492WAT     H128878   1.739   6.574   3.266  0.4919  0.0113 -0.7749
 9492WAT     H228879   1.686   6.708   3.221 -0.2685 -0.0283 -0.0235
 9493WAT      O28880   1.674   0.316   2.992 -0.1425  0.3532  0.4122
 9493WAT     H128881   1.689   0.280   2.905 -1.8291 -0.4719  0.4118
 9493WAT     H228882   1.655   0.240   3.047 -1.1471  1.0040  1.0160
 9494WAT      O28883   4.114   2.720   1.989 -0.4643 -0.0034  0.0683
 9494WAT     H128884   4.147   2.757   2.071  0.3274 -0.5965  0.0326
 9494WAT     H228885   4.056   2.786   1.954  0.9748  1.2460 -0.0476
 9495WAT      O28886   1.708   3.063   0.406 -0.1901 -0.1010  0.4151
 9495WAT     H128887   1.710   3.002   0.480  2.7420  1.7914  2.0876
 9495WAT     H228888   1.797   3.063   0.371 -0.7131  1.4257 -1.0851
 9496WAT      O28889   2.815   6.128   1.697 -0.4549 -0.2117  0.1454
 9496WAT     H128890   2.890   6.145   1.641 -1.2911  1.4176 -0.5539
 9496WAT     H228891   2.828   6.039   1.728  1.3750 -0.2273 -0.5379
 9497WAT      O28892   4.411   3.434   0.278  0.3010  0.1439  0.5020
 9497WAT     H128893   4.403   3.355   0.331 -1.6731  1.0989  1.7541
 9497WAT     H228894   4.493   3.422   0.229 -0.4312 -3.0909 -0.1466
 9498WAT      O28895   6.066   4.774   1.991 -0.1345  0.3496  0.6669
 9498WAT     H128896   6.005   4.785   1.918 -0.8569 -0.1473  1.1788
 9498WAT     H228897   6.037   4.694   2.034 -0.4344  1.2206  2.1663
 9499WAT      O28898   2.097   3.995   2.962 -0.3029  0.0038 -0.1610
 9499WAT     H128899   2.093   3.994   2.867  1.3636 -0.5139 -0.2542
 9499WAT     H228900   2.008   4.016   2.990 -0.6365  0.9838 -1.8340
 9500WAT      O28901   2.402   6.263   0.289  0.0238  0.1392 -0.3697
 9500WAT     H128902   2.424   6.334   0.228  2.6875 -0.3797 -0.1008
 9500WAT     H228903   2.482   6.247   0.337 -1.3672 -1.0979  1.6587
 9501WAT      O28904   3.057   0.225   5.964 -0.0719  0.6660  0.4076
 9501WAT     H128905   3.120   0.154   5.953 -0.4686  0.1723  1.2220
 9501WAT     H228906   3.111   0.304   5.973  0.3456  0.7665 -2.2636
 9502WAT      O28907   0.773   5.143   2.691  0.1516  0.6295  0.0222
 9502WAT     H128908   0.787   5.156   2.785  0.7144  0.6182 -0.0609
 9502WAT     H228909   0.808   5.056   2.673 -2.4082 -0.5515  0.3191
 9503WAT      O28910   5.444   6.681   5.843  0.3198  0.2448  0.0379
 9503WAT     H128911   5.448   6.630   5.763  0.4396  0.5059 -0.1224
 9503WAT     H228912   5.501   6.634   5.905 -1.0915 -0.8921  0.5101
 9504WAT      O28913   5.217   0.237   1.883  0.0914 -0.5410  0.2319
 9504WAT     H128914   5.183   0.179   1.951  2.5010 -3.2086 -0.6758
 9504WAT     H228915   5.302   0.266   1.915  0.7623 -0.9169 -1.1267
 9505WAT      O28916   0.946   6.690   1.570 -0.6342 -0.1086  0.0716
 9505WAT     H128917   1.019   6.628   1.573  0.5715  1.2634  0.1331
 9505WAT     H228918   0.884   6.656   1.634  1.1759  0.1164  2.0766
 9506WAT      O28919   0.995   5.942   1.636  0.3899 -0.0340  0.1810
 9506WAT     H128920   0.903   5.943   1.610  0.2704 -0.9260  0.5179
 9506WAT     H228921   1.017   6.034   1.648 -0.1185  0.2662 -1.0466
 9507WAT      O28922   7.237   2.707   0.585  0.2469 -0.5161  0.1932
 9507WAT     H128923   7.239   2.620   0.546  1.2367 -0.4264  0.0221
 9507WAT     H228924   7.299   2.759   0.533 -0.6037  0.3908  0.0601
 9508WAT      O28925   5.125   5.966   1.016 -0.1236 -0.2067  0.2702
 9508WAT     H128926   5.064   6.040   1.014  0.6925  0.4804  0.0500
 9508WAT     H228927   5.083   5.898   0.963 -0.4527  0.4538 -0.3348
 9509WAT      O28928   1.506   0.866   1.414 -0.1102  0.1553 -0.1600
 9509WAT     H128929   1.584   0.813   1.433 -0.1738  0.3369  0.6556
 9509WAT     H228930   1.439   0.832   1.473 -0.4883  0.3739 -0.4582
 9510WAT      O28931   6.701   6.861   5.348  0.1035  0.7440  0.6418
 9510WAT     H128932   6.731   6.926   5.284 -0.6020 -0.1023 -0.5871
 9510WAT     H228933   6.778   6.843   5.402  0.4146  2.2817  0.7469
 9511WAT      O28934   7.327   3.150   1.746 -0.3998  0.1749 -0.3316
 9511WAT     H128935   7.339   3.222   1.808  0.5430  0.5794 -0.9456
 9511WAT     H228936   7.329   3.071   1.800 -2.5269  0.6317  0.4813
 9512WAT      O28937   6.834   1.541   0.111 -0.2875  0.0682  0.4506
 9512WAT     H128938   6.829   1.633   0.135 -1.1724  0.7286 -2.0000
 9512WAT     H228939   6.914   1.509   0.153  1.2875  2.5521 -0.4716
 9513WAT      O28940   0.384   2.551   5.605  0.3806  0.1591  0.2471
 9513WAT     H128941   0.316   2.563   5.671 -0.6199 -0.7941 -0.5907
 9513WAT     H228942   0.406   2.458   5.609  0.5772  0.1637 -0.5035
 9514WAT      O28943   4.269   7.113   1.235  0.1589  0.5516  0.0830
 9514WAT     H128944   4.275   7.104   1.330  1.0370 -1.8135 -0.1184
 9514WAT     H228945   4.176   7.107   1.216 -0.0196  0.9861  0.7792
 9515WAT      O28946   1.342   6.532   2.789  0.2071  0.2582  0.4547
 9515WAT     H128947   1.392   6.453   2.773 -0.5045  0.1459 -1.6055
 9515WAT     H228948   1.401   6.589   2.839  2.6554  0.3419 -2.2504
 9516WAT      O28949   4.729   2.099   0.968  0.0650 -0.1299 -0.5013
 9516WAT     H128950   4.652   2.148   0.999 -0.2618 -0.2860 -1.0541
 9516WAT     H228951   4.759   2.051   1.045 -1.0171 -0.8706 -0.5214
 9517WAT      O28952   1.418   1.184   6.222  0.1802 -0.0667  0.1175
 9517WAT     H128953   1.329   1.164   6.193  0.6661 -1.0841 -0.7492
 9517WAT     H228954   1.449   1.251   6.161 -0.1444  0.6290  0.7069
 9518WAT      O28955   1.724   2.210   1.805  0.4478 -0.6832  0.4265
 9518WAT     H128956   1.686   2.281   1.753  2.1873  1.0519  1.3741
 9518WAT     H228957   1.662   2.196   1.876  0.6160  0.7712  0.8927
 9519WAT      O28958   2.108   4.735   0.339  0.7633 -0.9517 -0.5571
 9519WAT     H128959   2.187   4.707   0.385  0.3834 -2.2729 -0.6564
 9519WAT     H228960   2.113   4.691   0.254  1.1154  0.9132 -1.5523
 9520WAT      O28961   4.265   5.557   1.597  0.0977 -0.9946 -0.2501
 9520WAT     H128962   4.234   5.513   1.518 -2.2417 -0.4368  0.2796
 9520WAT     H228963   4.185   5.578   1.646  1.3897  0.0082  1.5542
 9521WAT      O28964   6.715   6.188   4.979 -0.7133 -0.1765 -0.4510
 9521WAT     H128965   6.744   6.117   5.038  0.9766  0.9671  0.1898
 9521WAT     H228966   6.655   6.240   5.032  3.3110  2.8240  1.7779
 9522WAT      O28967   0.350   3.928   0.928  0.1924  0.0966  0.1055
 9522WAT     H128968   0.413   3.982   0.975 -0.2994  0.9916 -0.2332
 9522WAT     H228969   0.374   3.838   0.949 -0.5209  0.4582  2.7448
 9523WAT      O28970   5.529   7.074   5.467  0.6792  0.4707 -0.1658
 9523WAT     H128971   5.591   7.003   5.481  1.5336  0.9394 -1.3867
 9523WAT     H228972   5.560   7.144   5.524  0.1993  0.0960  0.5727
 9524WAT      O28973   2.314   4.240   3.548 -0.1476 -0.1941  0.4606
 9524WAT     H128974   2.264   4.180   3.602  1.5776 -1.6343  0.5672
 9524WAT     H228975   2.372   4.184   3.497  0.8013  1.3333 -0.2256
 9525WAT      O28976   4.342   2.627   0.532  0.0280 -0.1004 -0.5279
 9525WAT     H128977   4.310   2.619   0.442  0.6236  0.8869 -0.8406
 9525WAT     H228978   4.416   2.686   0.526  0.3097 -0.3171  0.5704
 9526WAT      O28979   2.232   0.950   4.461  0.7034  0.0112  0.5880
 9526WAT     H128980   2.215   0.976   4.552  0.0216 -0.6139  0.6529
 9526WAT     H228981   2.213   1.029   4.410 -1.1805 -0.2619  0.7968
 9527WAT      O28982   5.649   4.778   5.556  0.4070  0.7386 -0.0131
 9527WAT     H128983   5.662   4.776   5.651  0.1108 -1.0806  0.0401
 9527WAT     H228984   5.736   4.799   5.521  0.8441  0.1322  0.6460
 9528WAT      O28985   5.905   4.253   0.496 -0.3519  0.0550 -0.6436
 9528WAT     H128986   5.996   4.273   0.517 -0.7064 -0.0508  1.1391
 9528WAT     H228987   5.863   4.241   0.581 -2.1525  0.6282 -1.4043
 9529WAT      O28988   4.063   0.270   2.953  0.0319 -0.5767  0.0656
 9529WAT     H128989   4.099   0.313   3.030 -1.5556  0.7015  0.1574
 9529WAT     H228990   4.004   0.203   2.988 -1.6879  0.8482  0.0722
 9530WAT      O28991   2.421   4.106   1.901 -0.2437  0.1607 -0.2310
 9530WAT     H128992   2.430   4.156   1.819  1.0765  0.3438  0.0123
 9530WAT     H228993   2.327   4.087   1.907 -0.5611  1.3635 -1.0665
 9531WAT      O28994   5.069   6.477   6.055 -0.1303  0.0892  0.3319
 9531WAT     H128995   4.984   6.487   6.097 -0.9624 -0.7792 -1.0712
 9531WAT     H228996   5.090   6.564   6.021 -0.4499  0.3063  0.6896
 9532WAT      O28997   1.037   0.670   0.734 -0.2125  0.6907 -0.2792
 9532WAT     H128998   1.062   0.722   0.811 -2.2932  0.5871  0.5458
 9532WAT     H228999   0.949   0.700   0.713 -1.0047 -1.6051 -0.5320
 9533WAT      O29000   2.835   3.841   6.072 -0.3473 -0.0589  0.4572
 9533WAT     H129001   2.855   3.748   6.079 -1.3591 -0.2941  0.3864
 9533WAT     H229002   2.902   3.876   6.012 -1.0434 -1.0989 -0.9900
 9534WAT      O29003   6.435   0.392   4.067 -0.0707  0.1802  0.2052
 9534WAT     H129004   6.442   0.461   4.001 -0.1483  1.7290  1.7133
 9534WAT     H229005   6.406   0.315   4.019  0.3628  1.0989 -1.6244
 9535WAT      O29006   6.974   2.194   1.957 -0.2912  0.4393 -0.2276
 9535WAT     H129007   6.988   2.122   1.895 -2.8679 -2.7040  2.4072
 9535WAT     H229008   7.059   2.237   1.964  1.2394 -1.9127 -2.5023
 9536WAT      O29009   4.025   2.037   1.444 -0.3253  0.2403  0.6825
 9536WAT     H129010   4.047   2.119   1.489 -0.7306  0.5940  0.2400
 9536WAT     H229011   4.102   1.981   1.459  1.4780  1.8576 -1.8207
 9537WAT      O29012   4.364   0.020   0.411 -0.4436  0.6077  0.1287
 9537WAT     H129013   4.304   0.094   0.410 -1.1126  0.0829 -0.3065
 9537WAT     H229014   4.308  -0.056   0.430 -0.2345 -0.1228 -1.8566
 9538WAT      O29015   7.451   4.145   3.648  0.4264  0.0219 -0.7762
 9538WAT     H129016   7.382   4.162   3.584  1.0888 -0.1153 -1.5484
 9538WAT     H229017   7.428   4.061   3.688 -1.4809  1.3752  1.2028
 9539WAT      O29018   5.839   6.057   4.915  0.0621 -0.6227 -0.0293
 9539WAT     H129019   5.876   6.095   4.995  0.0108 -0.1360 -0.2323
 9539WAT     H229020   5.872   6.113   4.845  0.9490 -1.6494 -0.4674
 9540WAT      O29021   0.163   0.855   4.217  0.0720  0.2867 -0.0613
 9540WAT     H129022   0.219   0.889   4.287 -0.7515 -0.7732  1.1691
 9540WAT     H229023   0.192   0.765   4.206 -0.0866  0.3246 -0.8053
 9541WAT      O29024   5.560   0.667   0.994  0.1117 -0.5823 -0.4972
 9541WAT     H129025   5.484   0.656   0.937 -0.6369  0.2280  0.3119
 9541WAT     H229026   5.550   0.600   1.061 -0.8587  0.5965  0.6002
 9542WAT      O29027   5.212   4.435   2.416  0.3678  0.2367  0.2404
 9542WAT     H129028   5.240   4.526   2.424  2.2791  0.0766 -2.8375
 9542WAT     H229029   5.272   4.387   2.474  0.4413  0.7646  0.6095
 9543WAT      O29030   2.123   0.568   1.110  0.0455 -0.1390  0.3056
 9543WAT     H129031   2.182   0.506   1.152 -0.7646 -0.2331  1.3482
 9543WAT     H229032   2.039   0.523   1.108 -0.0046 -0.0314 -1.2088
 9544WAT      O29033   4.550   1.664   1.358 -0.2504 -0.2071  0.1780
 9544WAT     H129034   4.641   1.678   1.384  0.1732 -1.2114 -0.7154
 9544WAT     H229035   4.516   1.601   1.421  0.6033 -2.1877 -1.2433
 9545WAT      O29036   1.028   6.319   4.408  0.0818  0.4626 -0.2057
 9545WAT     H129037   1.077   6.401   4.406 -1.1889  1.2448 -0.9000
 9545WAT     H229038   1.093   6.251   4.389  0.7817  1.5113 -1.6970
 9546WAT      O29039   2.639   5.940   2.480 -0.5045  0.3416  0.5506
 9546WAT     H129040   2.705   5.973   2.540  1.8262 -0.0168 -1.6217
 9546WAT     H229041   2.619   6.013   2.422 -1.4707  0.2208  0.7072
 9547WAT      O29042   1.593   3.416   0.143 -0.1915 -0.2926  0.0295
 9547WAT     H129043   1.686   3.414   0.121 -0.1997  1.0074 -0.1810
 9547WAT     H229044   1.590   3.401   0.238  0.3170  0.6620  0.2082
 9548WAT      O29045   5.116   2.631   3.352  0.2155  0.3402  0.2173
 9548WAT     H129046   5.191   2.588   3.309  0.1535  0.1804  0.2671
 9548WAT     H229047   5.040   2.599   3.304 -0.0230 -1.3152  1.6086
 9549WAT      O29048   7.538   2.104   5.110 -0.0499  0.6587  0.0913
 9549WAT     H129049   7.505   2.194   5.115 -2.8656 -0.3155  0.7004
 9549WAT     H229050   7.572   2.086   5.198 -0.6318  0.7417  0.3377
 9550WAT      O29051   3.563   0.104   2.720  0.4189 -0.0509  0.2074
 9550WAT     H129052   3.579   0.131   2.630 -0.8315 -0.8728 -0.3020
 9550WAT     H229053   3.644   0.063   2.749  0.6285 -0.3518 -0.7821
 9551WAT      O29054   4.898   5.522   1.679 -0.0385  0.2305 -0.6347
 9551WAT     H129055   4.833   5.516   1.610 -0.3394 -1.2651 -0.2410
 9551WAT     H229056   4.900   5.615   1.702 -2.8569  0.1645  0.1372
 9552WAT      O29057   2.285   5.136   1.087 -0.6374  0.2868  0.6640
 9552WAT     H129058   2.201   5.101   1.116 -0.3991  0.1746  1.2431
 9552WAT     H229059   2.296   5.102   0.998 -0.1970 -1.5321  1.3722
 9553WAT      O29060   3.232   7.065   5.157  0.0628 -0.0604 -0.4137
 9553WAT     H129061   3.292   7.129   5.119  0.4371  0.0568  0.3637
 9553WAT     H229062   3.196   7.108   5.234  0.3956 -0.8188  0.1773
 9554WAT      O29063   7.245   4.852   4.070 -0.3350 -0.0740 -0.1638
 9554WAT     H129064   7.233   4.816   3.982 -0.1531 -1.4415  0.3466
 9554WAT     H229065   7.339   4.863   4.080 -0.2542 -0.9430  0.2148
 9555WAT      O29066   7.406   2.529   1.504 -0.2387  0.6476 -0.1206
 9555WAT     H129067   7.341   2.591   1.471 -1.0686  0.2118  0.6594
 9555WAT     H229068   7.384   2.519   1.597 -0.2768 -1.0152 -0.2854
 9556WAT      O29069   4.388   6.176   0.159 -0.0816 -0.2335 -0.3823
 9556WAT     H129070   4.315   6.231   0.128  0.6145  0.8699 -0.1344
 9556WAT     H229071   4.436   6.233   0.220  1.4683 -0.6523 -1.1714
 9557WAT      O29072   6.209   6.083   2.916  0.1668  0.2357 -0.4927
 9557WAT     H129073   6.156   6.084   2.996  1.1277 -1.9949  0.2590
 9557WAT     H229074   6.299   6.069   2.947  1.1217  2.8247 -1.8009
 9558WAT      O29075   1.671   2.458   3.849  0.2690  0.1354 -0.6464
 9558WAT     H129076   1.596   2.410   3.884  1.0240  0.1438  1.1065
 9558WAT     H229077   1.672   2.541   3.897  2.5740 -0.7245  1.0307
 9559WAT      O29078   4.097   5.194   4.542 -0.3238  0.4629 -0.4112
 9559WAT     H129079   4.175   5.211   4.594 -0.1382 -1.2669 -0.0381
 9559WAT     H229080   4.125   5.128   4.479 -1.7617 -1.2565  0.6357
 9560WAT      O29081   5.680   3.551   5.944  0.4337 -0.0925 -0.1026
 9560WAT     H129082   5.736   3.567   5.868 -0.2786 -0.9944 -0.8353
 9560WAT     H229083   5.714   3.610   6.011  1.8575 -0.1573 -0.7264
 9561WAT      O29084   0.942   5.984   2.968  0.5729 -0.3764  0.6978
 9561WAT     H129085   1.035   6.006   2.962  0.1744  1.0198 -1.6008
 9561WAT     H229086   0.899   6.067   2.990 -0.1653 -1.0079  1.7474
 9562WAT      O29087   5.700   0.677   4.426  0.1056  0.1082  0.4921
 9562WAT     H129088   5.687   0.743   4.495  1.0738 -0.2457  1.0292
 9562WAT     H229089   5.790   0.647   4.438  0.3910  0.2339 -1.1127
 9563WAT      O29090   7.304   1.631   6.019  0.0197 -0.2761  0.1770
 9563WAT     H129091   7.347   1.600   5.939 -1.7633 -1.1367 -0.5054
 9563WAT     H229092   7.320   1.561   6.083 -1.6687 -1.4023 -0.5590
 9564WAT      O29093   5.195   4.429   5.073 -0.1365  0.4608 -0.7167
 9564WAT     H129094   5.157   4.491   5.135  1.0013  2.5029 -1.9581
 9564WAT     H229095   5.238   4.363   5.128 -0.9658  1.0269  0.6464
 9565WAT      O29096   3.503   6.897   2.094 -0.1055  0.3485 -0.1422
 9565WAT     H129097   3.429   6.845   2.127  0.1269 -0.6795 -1.1812
 9565WAT     H229098   3.567   6.894   2.165 -0.2519 -0.4690 -0.0281
 9566WAT      O29099   3.063   5.955   4.343 -0.3463 -0.5166  0.1578
 9566WAT     H129100   3.108   5.878   4.378 -2.8593 -1.2123  2.1620
 9566WAT     H229101   3.052   6.013   4.418 -0.8802  0.5994 -0.7484
 9567WAT      O29102   1.097   1.391   0.209  0.1549 -0.1664 -0.0484
 9567WAT     H129103   1.090   1.483   0.236  1.6206  0.0146 -0.2143
 9567WAT     H229104   1.016   1.351   0.239 -1.5999  1.6697 -1.9550
 9568WAT      O29105   4.873   4.781   4.157  0.4412  0.7483  0.2123
 9568WAT     H129106   4.795   4.833   4.176 -0.4335 -0.3156 -0.2968
 9568WAT     H229107   4.851   4.692   4.186  0.4763 -0.1130 -2.1077
 9569WAT      O29108   3.277   4.428   4.796 -0.7718  0.1599 -0.0124
 9569WAT     H129109   3.204   4.489   4.792 -1.0341  0.0719  2.1399
 9569WAT     H229110   3.238   4.341   4.786 -0.5798  0.2405 -1.6388
 9570WAT      O29111   2.028   2.429   3.424 -0.0318  0.4514  0.6911
 9570WAT     H129112   2.007   2.520   3.444 -2.8777  0.1887 -0.6225
 9570WAT     H229113   1.947   2.392   3.389  1.5836 -2.0360 -0.8139
 9571WAT      O29114   0.835   0.789   0.463 -0.4264  0.1765 -0.2548
 9571WAT     H129115   0.790   0.705   0.457  0.0424 -0.2126  1.2719
 9571WAT     H229116   0.827   0.827   0.375 -1.2556 -1.1340 -0.7731
 9572WAT      O29117   1.331   5.878   0.110  0.8577  0.2431 -0.2799
 9572WAT     H129118   1.282   5.956   0.138 -0.8811 -0.6971 -0.5488
 9572WAT     H229119   1.357   5.836   0.192  0.1929  0.1528 -0.1089
 9573WAT      O29120   2.697   2.052   1.742  0.3827  0.4703  0.3881
 9573WAT     H129121   2.683   2.018   1.654  0.4407  0.6347  0.3145
 9573WAT     H229122   2.785   2.090   1.740  1.0780 -1.0280  0.9997
 9574WAT      O29123   4.178   1.904   3.144 -0.0704 -0.3275 -0.0643
 9574WAT     H129124   4.257   1.861   3.111 -1.9238 -3.1178 -1.2559
 9574WAT     H229125   4.193   1.911   3.239  0.9129 -2.5277  0.0214
 9575WAT      O29126   1.028   4.117   5.736 -0.3938  0.2701  0.2487
 9575WAT     H129127   1.027   4.128   5.641 -0.4263  1.7880  0.3984
 9575WAT     H229128   0.968   4.044   5.752  1.6903 -1.8808 -1.0611
 9576WAT      O29129   3.391   4.782   3.264  0.4587  0.2176  0.1074
 9576WAT     H129130   3.347   4.712   3.217  1.4673 -0.2053 -0.2316
 9576WAT     H229131   3.421   4.741   3.346 -0.5947  0.7465  0.7788
 9577WAT      O29132   2.142   6.238   0.305 -0.2545 -0.0294  0.3958
 9577WAT     H129133   2.117   6.314   0.252 -0.4379 -0.9099 -0.8262
 9577WAT     H229134   2.234   6.253   0.327  0.3389 -0.4237 -1.6227
 9578WAT      O29135   0.057   3.879   3.046  0.2256 -0.5219  0.8379
 9578WAT     H129136  -0.028   3.899   3.006 -0.4563 -0.9475  2.0173
 9578WAT     H229137   0.117   3.871   2.972 -0.7297 -0.0792 -0.0152
 9579WAT      O29138   3.100   0.724   2.502  0.4676 -0.0413 -0.4991
 9579WAT     H129139   3.025   0.708   2.446  0.7664  0.7154 -1.1329
 9579WAT     H229140   3.095   0.657   2.570 -0.1637 -0.6667 -1.1578
 9580WAT      O29141   6.636   2.780   5.393 -0.4179  0.6146  0.0940
 9580WAT     H129142   6.660   2.748   5.480  0.2968 -0.3012 -0.4299
 9580WAT     H229143   6.620   2.701   5.341 -0.6057  1.1432 -0.6705
 9581WAT      O29144   3.934   6.709   2.807  0.5711  0.4846 -0.0633
 9581WAT     H129145   3.864   6.644   2.802 -0.2420  1.3653 -0.3949
 9581WAT     H229146   3.989   6.692   2.730 -0.3367  0.9624 -0.8334
 9582WAT      O29147   6.878   0.671   4.501  0.1054  0.7223 -0.2913
 9582WAT     H129148   6.861   0.681   4.595 -0.8162  2.8093 -0.6283
 9582WAT     H229149   6.791   0.679   4.460  0.6560  1.2767 -1.3985
 9583WAT      O29150   4.259   1.846   1.442 -0.1177 -0.1456  0.3866
 9583WAT     H129151   4.191   1.793   1.483 -0.1504  0.3616  0.9938
 9583WAT     H229152   4.341   1.808   1.474 -0.0693 -1.2204 -0.9108
 9584WAT      O29153   2.549   4.072   4.789  0.0076 -0.1538  0.1890
 9584WAT     H129154   2.488   3.998   4.798  0.1003 -0.3260 -0.5193
 9584WAT     H229155   2.600   4.051   4.711 -0.2348  0.8495 -0.2523
 9585WAT      O29156   4.052   5.407   3.666 -0.4158 -0.2283 -0.3164
 9585WAT     H129157   4.072   5.486   3.616  0.5572  0.5315  1.1888
 9585WAT     H229158   3.991   5.436   3.734 -2.0094 -1.3170 -1.2172
 9586WAT      O29159   2.500   0.061   4.497  0.3077  0.2650  0.2224
 9586WAT     H129160   2.411   0.064   4.533 -0.0204 -1.7127 -0.2937
 9586WAT     H229161   2.513   0.147   4.458 -1.6945  0.3579 -0.3616
 9587WAT      O29162   3.253   0.748   1.918  0.3224  0.3602 -0.1568
 9587WAT     H129163   3.210   0.742   1.833 -0.2123  0.2293  0.1185
 9587WAT     H229164   3.315   0.821   1.909 -0.5035  1.0621 -0.3275
 9588WAT      O29165   2.750   2.640   4.369 -0.6177  0.0907  0.3796
 9588WAT     H129166   2.838   2.603   4.385  0.6250  2.4401 -0.6375
 9588WAT     H229167   2.704   2.627   4.452  1.3441  0.5030  1.5962
 9589WAT      O29168   0.551   2.641   0.314  0.0687 -0.1642  0.8552
 9589WAT     H129169   0.509   2.570   0.362  2.3819 -2.3703 -0.1542
 9589WAT     H229170   0.627   2.664   0.367 -0.2178  1.0254  0.7678
 9590WAT      O29171   4.273   3.377   4.055 -0.1612  0.1868  0.3320
 9590WAT     H129172   4.221   3.455   4.038  0.2813  0.1300 -1.5030
 9590WAT     H229173   4.228   3.307   4.007 -0.0180 -0.4950  1.1572
 9591WAT      O29174   4.838   0.926   4.207 -0.5329 -0.8049 -0.0363
 9591WAT     H129175   4.827   0.838   4.244 -1.4982 -0.5843  0.2175
 9591WAT     H229176   4.762   0.975   4.238  0.0014  0.1268 -0.1713
 9592WAT      O29177   7.545   3.851   1.970 -0.6120 -0.0502  0.2191
 9592WAT     H129178   7.615   3.863   2.034 -0.8319  0.8067  0.3102
 9592WAT     H229179   7.505   3.767   1.994 -0.2472 -0.0711  0.7714
 9593WAT      O29180   1.130   5.788   5.792 -0.4145 -0.1416 -0.0888
 9593WAT     H129181   1.100   5.708   5.834  0.1853 -0.2627  0.1204
 9593WAT     H229182   1.165   5.841   5.863  0.6768 -0.3781 -0.4267
 9594WAT      O29183   1.312   2.748   4.307  0.9056 -0.6256  0.3316
 9594WAT     H129184   1.352   2.819   4.358  2.3736 -1.6520  0.6832
 9594WAT     H229185   1.382   2.720   4.247  0.0033 -1.0852 -0.5313
 9595WAT      O29186   7.006   3.882   2.870  0.0154 -0.1739  0.4241
 9595WAT     H129187   7.089   3.859   2.911  0.8161 -1.8548 -1.9027
 9595WAT     H229188   6.969   3.799   2.841 -2.0330  0.6331  0.5500
 9596WAT      O29189   0.365   4.138   3.995 -0.3435  0.2914  0.1988
 9596WAT     H129190   0.430   4.136   3.925 -1.2352 -2.8757 -0.7111
 9596WAT     H229191   0.347   4.046   4.013 -2.1434  1.0409  2.7579
 9597WAT      O29192   4.091   1.417   2.074  0.1781  0.3120  0.1478
 9597WAT     H129193   3.996   1.433   2.080 -0.2170 -1.1581 -1.4261
 9597WAT     H229194   4.128   1.468   2.146 -1.8581  0.5193  1.1367
 9598WAT      O29195   3.262   6.313   5.221 -0.2073 -0.1189 -0.0276
 9598WAT     H129196   3.262   6.350   5.310  1.3201  1.1993 -0.5214
 9598WAT     H229197   3.254   6.389   5.164  0.6055 -0.7839 -1.0566
 9599WAT      O29198   1.557   4.078   3.530 -0.2301 -0.0713  0.2223
 9599WAT     H129199   1.559   3.988   3.497  2.6714 -0.1068  0.2784
 9599WAT     H229200   1.507   4.127   3.464 -1.6873 -1.6520  0.1043
 9600WAT      O29201   4.953   1.028   5.996  0.2147  0.0846  0.1727
 9600WAT     H129202   5.022   0.986   5.945 -0.3814 -1.8666  0.8734
 9600WAT     H229203   4.879   0.969   5.990 -0.2102  0.2972  2.4093
 9601WAT      O29204   4.307   6.406   5.952  0.3972 -0.0384 -0.4289
 9601WAT     H129205   4.273   6.321   5.926 -1.6309  0.3916  0.6539
 9601WAT     H229206   4.378   6.386   6.014  0.1213 -0.9374 -0.3997
 9602WAT      O29207   1.386   6.269   0.586  0.1189 -0.3772  0.2783
 9602WAT     H129208   1.296   6.237   0.581 -0.4935  1.1406  0.9445
 9602WAT     H229209   1.381   6.347   0.641  1.4012  1.2612 -1.7509
 9603WAT      O29210   1.296   3.651   4.723  0.2728  0.6329  0.2597
 9603WAT     H129211   1.312   3.714   4.794  0.5549 -0.7671  1.4847
 9603WAT     H229212   1.256   3.576   4.766  2.3946 -1.1444 -0.6915
 9604WAT      O29213   3.475   2.806   2.719 -0.0153  0.1109 -0.2392
 9604WAT     H129214   3.404   2.869   2.704  1.4964  1.8867 -0.3980
 9604WAT     H229215   3.481   2.799   2.814  0.2515  0.7554 -0.2053
 9605WAT      O29216   3.026   6.790   3.950 -0.4615  0.3109 -0.5841
 9605WAT     H129217   2.935   6.809   3.973 -0.4589 -1.7122  1.5235
 9605WAT     H229218   3.061   6.745   4.027  2.0860  0.2553 -1.6785
 9606WAT      O29219   6.475   5.692   0.134  0.0603  0.0713 -0.2793
 9606WAT     H129220   6.464   5.616   0.191  1.0358  1.9313  2.6054
 9606WAT     H229221   6.525   5.659   0.059  1.5640 -1.8984  1.4696
 9607WAT      O29222   6.896   4.485   6.021  0.2094  0.1502  0.8469
 9607WAT     H129223   6.961   4.539   6.067  0.9283  1.6861 -1.6983
 9607WAT     H229224   6.835   4.457   6.088  1.2889  2.0184  2.7327
 9608WAT      O29225   6.544   6.280   1.884 -0.2705 -0.1531 -0.7892
 9608WAT     H129226   6.577   6.191   1.870 -1.4768 -0.8100  0.3503
 9608WAT     H229227   6.588   6.333   1.817 -0.8337 -1.9033 -2.6311
 9609WAT      O29228   7.615   2.478   5.354  0.3403 -0.0000  0.4425
 9609WAT     H129229   7.684   2.543   5.362  0.4478 -0.0048 -0.3589
 9609WAT     H229230   7.629   2.418   5.427 -0.3081  1.3648  1.7477
 9610WAT      O29231   3.098   3.735   4.942  0.0492 -0.0527  0.1522
 9610WAT     H129232   3.027   3.743   5.006 -0.3801  0.1456 -0.3327
 9610WAT     H229233   3.172   3.701   4.991 -0.6534 -1.1314  0.4928
 9611WAT      O29234   0.908   4.753   4.769 -0.4562 -0.3056 -0.3335
 9611WAT     H129235   0.983   4.757   4.828 -0.3046  0.3329 -0.5674
 9611WAT     H229236   0.850   4.688   4.809 -0.2707 -0.0172  0.4159
 9612WAT      O29237   6.669   3.904   2.897 -0.1797  0.3104  0.1095
 9612WAT     H129238   6.640   3.909   2.806 -2.4500 -1.4705  0.6552
 9612WAT     H229239   6.765   3.904   2.891 -0.2695  0.0492 -2.2927
 9613WAT      O29240   3.939   0.649   0.471  0.5493  0.1131 -0.2328
 9613WAT     H129241   3.887   0.576   0.503  2.4854 -1.7444 -1.1037
 9613WAT     H229242   3.955   0.702   0.549 -0.6897 -0.4839  0.4638
 9614WAT      O29243   1.018   2.033   3.292 -0.3820 -0.1581 -0.2218
 9614WAT     H129244   1.058   2.035   3.378 -1.0924 -0.6904  0.1366
 9614WAT     H229245   0.934   1.989   3.306 -0.2487 -0.7845 -1.2912
 9615WAT      O29246   3.112   4.625   1.214  0.4047 -0.4574  0.2367
 9615WAT     H129247   3.172   4.692   1.247  0.4378 -0.9856  1.3283
 9615WAT     H229248   3.086   4.577   1.293 -1.1729 -0.4725 -0.2659
 9616WAT      O29249   4.701   1.276   5.135  0.0669  0.9406 -0.1583
 9616WAT     H129250   4.624   1.239   5.092  1.9941 -1.9244 -1.4215
 9616WAT     H229251   4.765   1.286   5.064  1.9300  0.0965  1.3325
 9617WAT      O29252   1.410   3.558   4.218  0.1678 -0.1232  0.1036
 9617WAT     H129253   1.418   3.474   4.173  0.7615 -0.7193  1.2863
 9617WAT     H229254   1.360   3.613   4.158  1.9827 -0.4806 -1.8393
 9618WAT      O29255   6.011   2.275   1.033  0.2890 -0.1565  0.3868
 9618WAT     H129256   6.038   2.264   1.124 -0.4686  1.7901  0.8948
 9618WAT     H229257   6.069   2.343   0.999 -0.4289  0.2203 -0.1148
 9619WAT      O29258   1.653   0.873   3.335 -0.2920  0.0032 -0.0314
 9619WAT     H129259   1.612   0.959   3.342 -0.0062  0.0718  0.9928
 9619WAT     H229260   1.744   0.888   3.360 -0.1945 -0.5638 -0.0264
 9620WAT      O29261   4.409   0.610   3.447 -0.6715 -0.3205  0.2755
 9620WAT     H129262   4.433   0.534   3.395 -0.1280  0.1108 -0.1188
 9620WAT     H229263   4.405   0.682   3.384  0.1447  0.2415  0.8360
 9621WAT      O29264   4.245   1.489   4.613 -0.4557  0.0301  0.5959
 9621WAT     H129265   4.198   1.409   4.636  1.6657 -1.4044  0.2888
 9621WAT     H229266   4.263   1.531   4.697 -3.0109  1.1455  0.6714
 9622WAT      O29267   1.291   2.259   3.356  0.0300  0.0721  0.2223
 9622WAT     H129268   1.270   2.348   3.329 -0.6518 -0.0191  0.4288
 9622WAT     H229269   1.256   2.252   3.445  2.8381  0.5853  1.4730
 9623WAT      O29270   1.462   3.042   0.299 -0.2063 -0.1834 -0.0475
 9623WAT     H129271   1.457   3.049   0.203  0.1008  0.1204 -0.0447
 9623WAT     H229272   1.554   3.061   0.319 -0.4899  0.7735  0.3891
 9624WAT      O29273   0.279   2.968   3.309  0.1125  0.0216  0.3680
 9624WAT     H129274   0.293   2.874   3.312 -0.4778 -0.1233 -0.7084
 9624WAT     H229275   0.185   2.979   3.322  0.1677  0.4510  0.4153
 9625WAT      O29276   5.916   4.302   1.242 -0.3185  0.0972  0.2610
 9625WAT     H129277   5.964   4.221   1.261 -1.7221 -0.8586 -0.0809
 9625WAT     H229278   5.902   4.343   1.327  2.0947  1.0419  0.2838
 9626WAT      O29279   1.924   3.088   1.802 -0.0038  0.6127  0.3158
 9626WAT     H129280   1.897   3.178   1.821  0.0268  0.1864  2.6401
 9626WAT     H229281   1.973   3.061   1.880  1.6664 -0.7881 -1.1461
 9627WAT      O29282   0.450   0.100   5.415  0.0593 -0.3748  0.4884
 9627WAT     H129283   0.537   0.133   5.437  0.0507 -0.7336  1.0902
 9627WAT     H229284   0.391   0.173   5.436  0.2887  0.2287 -0.8509
 9628WAT      O29285   4.985   5.168   1.766 -0.0245  0.5722  0.5583
 9628WAT     H129286   5.009   5.212   1.848 -0.0661 -0.4714  1.1471
 9628WAT     H229287   4.891   5.182   1.759  0.1538  1.6352  0.0839
 9629WAT      O29288   0.003   0.170   0.547  0.1626  0.1366 -0.4975
 9629WAT     H129289   0.014   0.182   0.642 -0.3351 -1.3599 -0.2163
 9629WAT     H229290   0.063   0.234   0.508 -0.2859  1.4133  0.8007
 9630WAT      O29291   5.510   0.350   1.139 -0.3182  0.1584 -0.2600
 9630WAT     H129292   5.470   0.433   1.165 -0.4822  0.3800 -1.1885
 9630WAT     H229293   5.443   0.284   1.158 -0.3586  0.2860  0.0534
 9631WAT      O29294   3.957   2.576   1.386 -0.3610  0.5883  0.4697
 9631WAT     H129295   3.929   2.507   1.326  1.5971  0.8712 -0.8569
 9631WAT     H229296   3.883   2.638   1.388 -0.5885  0.4290 -1.4308
 9632WAT      O29297   2.658   0.888   2.693 -0.2543  0.1325  0.4177
 9632WAT     H129298   2.715   0.940   2.637 -0.5782  1.6760  1.4451
 9632WAT     H229299   2.688   0.907   2.782 -0.7109 -1.0650  0.8546
 9633WAT      O29300   0.279   6.192   3.155 -0.4625  0.3276  0.0801
 9633WAT     H129301   0.351   6.139   3.189 -1.3802 -0.8270  0.2891
 9633WAT     H229302   0.281   6.272   3.207 -0.5286 -0.5151  1.4220
 9634WAT      O29303   7.196   6.840   3.689 -0.0490 -0.3817 -0.1671
 9634WAT     H129304   7.234   6.895   3.757 -1.2155 -1.7881  1.7273
 9634WAT     H229305   7.239   6.755   3.700  0.1694 -0.4724 -1.5906
 9635WAT      O29306   5.987   6.996   2.223 -0.0167  0.0138  0.1276
 9635WAT     H129307   5.924   6.999   2.295 -0.7839  1.9511 -0.5734
 9635WAT     H229308   5.935   6.973   2.147  0.0700  1.7720 -0.4876
 9636WAT      O29309   1.348   1.329   0.882 -0.8292  0.1819  0.0304
 9636WAT     H129310   1.435   1.344   0.919 -0.5685  0.3317 -0.6172
 9636WAT     H229311   1.287   1.346   0.954 -0.3270  0.1677  0.4621
 9637WAT      O29312   3.209   6.794   3.735 -0.2843 -0.1026 -0.6719
 9637WAT     H129313   3.149   6.787   3.810 -0.1251  3.0431 -0.1000
 9637WAT     H229314   3.255   6.876   3.750  0.4252  0.1780 -3.8024
 9638WAT      O29315   0.089   6.249   2.921 -0.0055 -0.1821  0.0825
 9638WAT     H129316  -0.003   6.273   2.912  0.0131  0.7765  1.9588
 9638WAT     H229317   0.132   6.294   2.849 -0.9686 -0.5341 -0.7429
 9639WAT      O29318   1.239   3.632   1.362  0.3990 -0.1382 -0.5704
 9639WAT     H129319   1.223   3.679   1.281 -0.9151  0.0086 -0.2556
 9639WAT     H229320   1.278   3.549   1.334  0.7775  0.2715 -1.2803
 9640WAT      O29321   5.471   5.997   2.330 -0.0044  0.5275  0.6330
 9640WAT     H129322   5.495   6.049   2.407  0.3479 -0.6341  1.3369
 9640WAT     H229323   5.501   5.908   2.351 -1.9673 -0.3011  0.1188
 9641WAT      O29324   6.479   3.961   0.673  0.0097  0.6476 -0.3560
 9641WAT     H129325   6.566   3.925   0.654 -0.0362 -0.1063  0.7391
 9641WAT     H229326   6.422   3.883   0.678 -0.7645  1.1370 -1.1663
 9642WAT      O29327   7.353   1.030   3.413  0.0060  0.2402 -0.2158
 9642WAT     H129328   7.432   1.010   3.464  0.5778  1.0310 -0.7677
 9642WAT     H229329   7.306   0.947   3.409  0.3253 -0.0199  0.9539
 9643WAT      O29330   1.077   1.043   4.211 -0.1200 -0.2460 -0.3068
 9643WAT     H129331   1.027   1.048   4.292 -0.7171 -0.7212 -0.6409
 9643WAT     H229332   1.165   1.019   4.239 -0.2119  0.0385  0.2367
 9644WAT      O29333   7.528   5.403   6.177  0.4094 -0.1997 -0.2227
 9644WAT     H129334   7.579   5.482   6.196  0.5281 -0.6351  1.4475
 9644WAT     H229335   7.591   5.331   6.181  0.2959 -0.4220 -1.6898
 9645WAT      O29336   2.747   4.247   4.148  0.1016 -0.0082 -0.2312
 9645WAT     H129337   2.735   4.154   4.165  0.3441 -0.4908 -2.3625
 9645WAT     H229338   2.714   4.259   4.059 -1.1656  2.2297  0.4591
 9646WAT      O29339   2.804   1.192   0.948 -0.7545  0.5838  0.0516
 9646WAT     H129340   2.876   1.133   0.925  1.0835  2.5831  0.3697
 9646WAT     H229341   2.739   1.135   0.989  1.2107 -1.1550  0.9618
 9647WAT      O29342   1.282   0.831   3.469 -0.5705  0.2695 -0.3705
 9647WAT     H129343   1.337   0.839   3.546  0.7189  0.3886 -1.2801
 9647WAT     H229344   1.265   0.921   3.441  0.9447  0.2157 -1.5712
 9648WAT      O29345   5.450   1.670   4.549  0.5277 -0.0635 -0.6824
 9648WAT     H129346   5.397   1.705   4.620 -1.1308  0.7353 -2.2226
 9648WAT     H229347   5.540   1.693   4.572 -0.1032  1.3544  0.5114
 9649WAT      O29348   7.439   6.890   2.776 -0.0652  0.2262 -0.0341
 9649WAT     H129349   7.463   6.983   2.771 -0.2495  0.2757 -0.0122
 9649WAT     H229350   7.348   6.888   2.747 -1.5979  0.6621  4.1357
 9650WAT      O29351   3.728   6.236   0.209  0.0752  0.1694 -0.2150
 9650WAT     H129352   3.736   6.141   0.204 -1.6065  0.0309 -1.1209
 9650WAT     H229353   3.655   6.251   0.269 -0.0236  0.8570 -0.4952
 9651WAT      O29354   5.319   2.878   4.553 -0.2580  0.1128  0.5023
 9651WAT     H129355   5.368   2.808   4.510  1.1487  0.6258  1.1969
 9651WAT     H229356   5.250   2.833   4.601 -0.0310 -0.7007  0.0834
 9652WAT      O29357   2.537   1.683   0.734  0.7418 -0.5099  0.1361
 9652WAT     H129358   2.583   1.668   0.816 -0.2667  0.5705  0.9333
 9652WAT     H229359   2.458   1.630   0.740  0.3043  0.1290  0.2071
 9653WAT      O29360   7.115   6.238   3.410  0.4075  0.0681 -0.3680
 9653WAT     H129361   7.060   6.191   3.348 -3.3013  0.3773  2.3443
 9653WAT     H229362   7.156   6.169   3.463  0.8122 -0.1259 -0.9213
 9654WAT      O29363   6.713   5.949   2.882  0.5661  0.6473  0.1459
 9654WAT     H129364   6.708   5.918   2.972 -0.5876 -0.1360 -0.1549
 9654WAT     H229365   6.664   6.031   2.882 -1.3539 -0.4368 -0.1600
 9655WAT      O29366   1.232   6.818   1.106  0.1884 -0.4876 -0.4156
 9655WAT     H129367   1.209   6.897   1.057 -0.7987 -0.1868  0.4803
 9655WAT     H229368   1.199   6.835   1.194  0.2750 -1.7659 -0.1220
 9656WAT      O29369   1.815   5.006   2.975  0.8894  0.5266 -0.0152
 9656WAT     H129370   1.799   5.100   2.964  0.3489  0.6270  1.3714
 9656WAT     H229371   1.732   4.973   3.011  1.0608 -0.4952 -0.5441
 9657WAT      O29372   1.437   2.296   4.015 -0.4348  0.3807  0.2355
 9657WAT     H129373   1.394   2.285   3.930 -1.0994  1.6315  0.3943
 9657WAT     H229374   1.367   2.324   4.074  0.2275  0.5383  0.9598
 9658WAT      O29375   2.504   5.266   6.011 -0.5467  0.2333 -1.0676
 9658WAT     H129376   2.450   5.187   6.004 -0.8082  0.2878  0.1243
 9658WAT     H229377   2.569   5.245   6.078 -1.5285  1.5106  0.3579
 9659WAT      O29378   2.254   5.634   1.768 -0.0409  0.1601 -0.3484
 9659WAT     H129379   2.232   5.623   1.675  1.3579  0.5747 -0.7558
 9659WAT     H229380   2.279   5.547   1.797 -2.0125 -0.3023  0.1007
 9660WAT      O29381   5.332   0.734   5.537  0.4956  0.3395  0.0338
 9660WAT     H129382   5.365   0.730   5.627  1.4054 -0.4549 -0.3192
 9660WAT     H229383   5.270   0.661   5.532  2.2739 -1.2146 -0.6556
 9661WAT      O29384   0.198   2.416   0.191  0.6957 -0.0292  0.4541
 9661WAT     H129385   0.117   2.365   0.192  0.6664  0.0109  0.2532
 9661WAT     H229386   0.229   2.409   0.100 -0.1781  1.6679 -0.0139
 9662WAT      O29387   2.829   6.443   0.441  1.0850  0.4444  0.4117
 9662WAT     H129388   2.883   6.501   0.387  0.9759  1.0835  0.9745
 9662WAT     H229389   2.822   6.488   0.525  0.4430 -0.0753  0.6474
 9663WAT      O29390   4.644   6.727   3.719  0.0766  0.3702 -0.0602
 9663WAT     H129391   4.715   6.758   3.662 -1.1850  1.3676 -1.1343
 9663WAT     H229392   4.622   6.803   3.773  0.7799 -0.3642  1.3134
 9664WAT      O29393   4.316   5.421   5.703 -0.5546 -0.1168 -0.2249
 9664WAT     H129394   4.248   5.405   5.768 -0.9602 -2.5573 -1.1518
 9664WAT     H229395   4.389   5.365   5.730  0.1323  0.5670 -0.6201
 9665WAT      O29396   4.490   5.586   0.772  0.3888 -0.0881  0.9025
 9665WAT     H129397   4.521   5.504   0.810  0.1028 -0.9545 -0.6603
 9665WAT     H229398   4.569   5.629   0.739  0.3015 -0.9482 -0.5143
 9666WAT      O29399   2.885   3.696   4.203 -0.7260  0.6995 -0.3270
 9666WAT     H129400   2.869   3.628   4.137 -0.9845  0.6165 -0.1812
 9666WAT     H229401   2.917   3.648   4.279 -1.6711  0.6446  0.0504
 9667WAT      O29402   5.817   4.341   2.866  0.6012  0.2204  0.0439
 9667WAT     H129403   5.779   4.413   2.916  0.6237  0.6149 -0.5000
 9667WAT     H229404   5.749   4.319   2.802 -0.1654 -1.4422  1.3209
 9668WAT      O29405   7.143   6.421   5.279 -0.8713  0.3788 -0.3999
 9668WAT     H129406   7.189   6.343   5.309  2.0772  1.9334 -0.4888
 9668WAT     H229407   7.079   6.439   5.349  0.9578 -0.0701  1.4901
 9669WAT      O29408   1.614   1.568   0.542 -0.5341 -0.1541  0.5424
 9669WAT     H129409   1.534   1.600   0.584 -1.1409 -0.8596 -0.0520
 9669WAT     H229410   1.626   1.625   0.466 -0.1891  0.2555  0.8928
 9670WAT      O29411   2.674   2.734   0.109  0.5484 -0.0008 -0.5544
 9670WAT     H129412   2.708   2.801   0.050  0.6336  0.5310  0.0894
 9670WAT     H229413   2.744   2.669   0.115  0.7154  0.1666 -0.6960
 9671WAT      O29414   4.040   3.327   2.571 -0.5571 -0.0349  0.3480
 9671WAT     H129415   3.972   3.273   2.612  2.0305 -2.0311  2.3302
 9671WAT     H229416   4.092   3.361   2.644 -0.4062  2.9479 -1.0070
 9672WAT      O29417   5.913   0.099   2.537 -0.0857  0.3838  0.2219
 9672WAT     H129418   5.903   0.106   2.632  0.0061 -1.3268  0.3803
 9672WAT     H229419   5.934   0.188   2.509  0.5366  0.7945  1.8840
 9673WAT      O29420   0.949   5.460   1.207  0.8124 -0.1599 -0.3013
 9673WAT     H129421   0.854   5.456   1.216  0.5779 -0.8489 -2.5543
 9673WAT     H229422   0.965   5.539   1.155  1.5492  0.2732  0.5466
 9674WAT      O29423   5.543   4.209   2.619  0.3909 -0.8381 -0.3728
 9674WAT     H129424   5.517   4.126   2.659 -1.3969 -0.5633 -0.8704
 9674WAT     H229425   5.547   4.271   2.692  1.2324 -1.2305 -0.0727
 9675WAT      O29426   7.165   3.094   3.336 -0.0390  0.1091  0.0071
 9675WAT     H129427   7.088   3.117   3.387 -2.3812  0.3024 -3.2912
 9675WAT     H229428   7.210   3.028   3.388 -2.6445 -0.3034  1.9138
 9676WAT      O29429   2.408   6.729   5.748  0.0726 -0.7434 -0.2436
 9676WAT     H129430   2.456   6.647   5.745  1.8125  0.1611  0.9485
 9676WAT     H229431   2.327   6.708   5.795  1.9009 -1.2372  2.9973
 9677WAT      O29432   6.965   5.650   1.827 -0.1114  0.3286 -0.2720
 9677WAT     H129433   6.883   5.601   1.832  0.2263 -0.2913 -0.7639
 9677WAT     H229434   6.939   5.741   1.842 -0.6326 -0.0647  1.4500
 9678WAT      O29435   1.440   1.370   4.824  0.2401 -0.0771 -0.3587
 9678WAT     H129436   1.395   1.303   4.774  0.3770 -0.0526 -0.5151
 9678WAT     H229437   1.509   1.402   4.765  1.2357 -0.9536  0.2890
 9679WAT      O29438   7.597   0.020   3.577 -0.2210  0.1161 -0.2195
 9679WAT     H129439   7.649  -0.038   3.632  1.4182  1.8408  0.1069
 9679WAT     H229440   7.506  -0.001   3.601  0.2958 -1.9892  0.1758
 9680WAT      O29441   1.424   3.115   1.008 -0.1868 -1.0046 -0.5697
 9680WAT     H129442   1.380   3.029   1.007  0.4044 -1.3509 -2.9657
 9680WAT     H229443   1.510   3.098   0.969  0.2332  0.5717 -0.3868
 9681WAT      O29444   1.743   4.484   4.218  0.0709  0.2428  0.6035
 9681WAT     H129445   1.690   4.483   4.298  0.7159 -0.5748  1.0379
 9681WAT     H229446   1.772   4.393   4.208  1.9300  0.7806  0.7520
 9682WAT      O29447   3.873   3.828   2.660 -0.0404 -0.0239  0.1912
 9682WAT     H129448   3.891   3.888   2.733  1.0490 -0.5210  0.3601
 9682WAT     H229449   3.891   3.880   2.582 -1.1000  0.4785  0.2721
 9683WAT      O29450   5.645   4.175   5.823  0.8121 -0.0409 -0.1857
 9683WAT     H129451   5.702   4.202   5.751 -2.0689  2.2641 -1.8207
 9683WAT     H229452   5.570   4.134   5.780  0.2373 -1.1072  1.7161
 9684WAT      O29453   6.390   7.099   1.760 -0.6689  0.1188 -0.6186
 9684WAT     H129454   6.411   7.167   1.695  2.0033  0.6149  0.6100
 9684WAT     H229455   6.323   7.138   1.816 -0.6727  0.9272 -1.1704
 9685WAT      O29456   3.788   1.434   3.038  0.4443  0.3220  0.1437
 9685WAT     H129457   3.707   1.461   2.996  1.3768  0.7952 -1.4275
 9685WAT     H229458   3.774   1.453   3.131 -0.9645  1.0526 -0.1836
 9686WAT      O29459   6.184   2.487   5.759 -0.6086 -0.3743 -0.4234
 9686WAT     H129460   6.184   2.575   5.796 -0.5822 -0.1400 -0.9702
 9686WAT     H229461   6.254   2.441   5.805 -0.5042 -0.0530 -0.2626
 9687WAT      O29462   3.728   5.518   6.140 -0.1793  0.5019  0.3029
 9687WAT     H129463   3.760   5.461   6.210  1.0022 -1.3604 -1.6223
 9687WAT     H229464   3.634   5.501   6.137 -0.2823  0.7623  1.5303
 9688WAT      O29465   3.512   0.324   0.494 -0.2369  0.0788 -0.2393
 9688WAT     H129466   3.534   0.233   0.474  1.2738  0.0981  1.1235
 9688WAT     H229467   3.548   0.338   0.581 -0.1386  2.0873 -0.5714
 9689WAT      O29468   1.082   4.508   4.695 -0.2387 -0.7024 -0.0197
 9689WAT     H129469   1.139   4.579   4.723 -1.3149 -0.2936  1.2039
 9689WAT     H229470   1.023   4.548   4.631 -2.5986  0.2945  2.5696
 9690WAT      O29471   3.075   4.210   4.300  0.9247 -0.2654 -0.6328
 9690WAT     H129472   3.081   4.282   4.237 -0.1946  0.5245  0.1128
 9690WAT     H229473   3.016   4.147   4.258  1.1150 -0.2939 -0.8635
 9691WAT      O29474   4.626   3.100   0.206 -0.5854  0.4327 -0.0235
 9691WAT     H129475   4.615   3.132   0.296 -0.7618 -0.9925  0.4881
 9691WAT     H229476   4.642   3.006   0.216  1.1916  0.5515 -1.3979
 9692WAT      O29477   5.366   3.407   3.566  0.9563 -0.3876 -0.4643
 9692WAT     H129478   5.364   3.394   3.661  0.6674  2.2977 -0.0143
 9692WAT     H229479   5.343   3.499   3.555  0.8046 -0.6895 -3.1757
 9693WAT      O29480   0.449   1.142   5.456 -0.0912 -0.8082  0.1730
 9693WAT     H129481   0.365   1.171   5.419 -0.5106 -0.4366  1.3774
 9693WAT     H229482   0.448   1.047   5.447  0.2898 -0.6814 -1.7126
 9694WAT      O29483   4.101   3.876   4.449 -0.1467  0.1968  0.2456
 9694WAT     H129484   4.144   3.926   4.519  0.5291 -2.7838  2.1731
 9694WAT     H229485   4.016   3.852   4.486 -0.8581  0.7165 -1.0123
 9695WAT      O29486   6.579   5.758   0.719 -0.2577 -0.1345  0.5424
 9695WAT     H129487   6.585   5.682   0.660  0.6788 -0.2411  0.7479
 9695WAT     H229488   6.498   5.745   0.768 -0.5961 -0.5007 -0.1003
 9696WAT      O29489   1.404   1.861   0.447  0.9664  0.6151  0.5517
 9696WAT     H129490   1.493   1.850   0.412  1.1004  1.5519  0.5812
 9696WAT     H229491   1.392   1.785   0.505  0.9183 -0.7010 -1.0929
 9697WAT      O29492   2.021   3.894   0.562 -0.0148  0.0187 -0.8126
 9697WAT     H129493   1.987   3.963   0.619 -0.2029  1.0202 -2.1166
 9697WAT     H229494   1.990   3.813   0.603 -1.0429  0.7580 -0.0728
 9698WAT      O29495   3.631   3.252   4.194  0.0077 -0.0219  0.0104
 9698WAT     H129496   3.690   3.177   4.184  0.0656 -0.0885  0.8179
 9698WAT     H229497   3.686   3.321   4.231  0.4905  1.1359 -2.6380
 9699WAT      O29498   6.241   4.330   2.251 -0.0728 -0.1355  0.3869
 9699WAT     H129499   6.180   4.278   2.304 -0.6605  0.5081  0.3585
 9699WAT     H229500   6.287   4.385   2.314  0.8419 -0.9591  0.4628
 9700WAT      O29501   6.811   5.613   5.965 -0.0810 -0.3177  0.5715
 9700WAT     H129502   6.844   5.676   6.030  2.5339  0.0013 -0.9726
 9700WAT     H229503   6.793   5.534   6.016 -1.3574  0.9225  2.1895
 9701WAT      O29504   1.313   2.324   4.423  0.3094 -0.1704 -0.2280
 9701WAT     H129505   1.361   2.381   4.483  2.3616 -1.5884 -0.4235
 9701WAT     H229506   1.252   2.276   4.479 -0.4161  1.1368  0.1390
 9702WAT      O29507   5.146   5.993   6.193 -0.3742  0.5317 -0.3108
 9702WAT     H129508   5.103   6.078   6.180 -0.0855  0.5217 -1.4197
 9702WAT     H229509   5.128   5.971   6.284 -0.1722  1.9423  0.1011
 9703WAT      O29510   6.738   6.639   5.820 -0.4354 -0.0565 -0.6522
 9703WAT     H129511   6.785   6.572   5.770  0.4774 -0.3637  0.5500
 9703WAT     H229512   6.656   6.597   5.845  0.4204 -1.0291  0.6823
 9704WAT      O29513   1.656   3.284   2.116  0.3683  0.0276  0.2488
 9704WAT     H129514   1.625   3.367   2.080 -2.6521 -0.8371  0.5729
 9704WAT     H229515   1.713   3.309   2.188  0.7996  1.7843 -0.6409
 9705WAT      O29516   2.576   5.625   3.557  0.0435 -0.2125 -0.8443
 9705WAT     H129517   2.641   5.562   3.527 -1.1257 -1.8571 -0.0799
 9705WAT     H229518   2.559   5.601   3.648  0.3178  1.9065 -0.1734
 9706WAT      O29519   0.969   4.459   1.155  0.2207 -0.6518 -0.0726
 9706WAT     H129520   0.963   4.369   1.185  0.3818 -0.8485 -0.6223
 9706WAT     H229521   1.007   4.507   1.229  2.1129 -1.4160 -0.5172
 9707WAT      O29522   7.012   4.527   5.076 -0.2436 -0.3964 -0.3059
 9707WAT     H129523   7.097   4.550   5.037 -0.6526  0.1928 -0.8647
 9707WAT     H229524   7.028   4.531   5.170  0.2494  0.1331 -0.4023
 9708WAT      O29525   4.370   4.359   1.865  0.0873  0.1862 -0.5965
 9708WAT     H129526   4.293   4.311   1.895  0.5949  0.3449  1.0192
 9708WAT     H229527   4.395   4.414   1.939  0.1477  2.1980 -2.0413
 9709WAT      O29528   3.927   2.328   5.524  0.6085 -0.2462  0.2858
 9709WAT     H129529   3.844   2.304   5.483  1.0692 -1.2877 -0.0953
 9709WAT     H229530   3.993   2.284   5.469  1.3764  0.1956  0.8427
 9710WAT      O29531   6.682   6.837   1.267 -0.0555 -0.3070 -0.1795
 9710WAT     H129532   6.760   6.821   1.214  1.0981  1.1930  0.9625
 9710WAT     H229533   6.700   6.793   1.350 -0.1923  0.4730  0.2698
 9711WAT      O29534   1.638   1.564   2.847 -0.8781 -0.4963 -0.0555
 9711WAT     H129535   1.680   1.520   2.921 -1.2419  0.4438  0.7313
 9711WAT     H229536   1.689   1.644   2.835 -0.0394 -1.2206 -1.6631
 9712WAT      O29537   3.182   6.246   3.711  0.3635 -0.4529  0.2955
 9712WAT     H129538   3.116   6.288   3.656  0.4930 -2.4828 -1.5554
 9712WAT     H229539   3.189   6.303   3.788 -3.2587  0.0452  0.4402
 9713WAT      O29540   5.193   6.588   3.227  0.1761 -0.2693  0.1438
 9713WAT     H129541   5.281   6.602   3.263  0.9149 -0.8850 -1.3345
 9713WAT     H229542   5.144   6.549   3.299  0.5547  1.7115  1.5790
 9714WAT      O29543   6.120   6.005   5.309  0.0625 -0.1959 -0.6235
 9714WAT     H129544   6.161   6.044   5.386 -0.4699  0.5655 -0.7150
 9714WAT     H229545   6.039   5.965   5.342 -1.0109  1.5532 -1.0151
 9715WAT      O29546   4.695   5.971   5.219  0.1927 -0.7408  0.2917
 9715WAT     H129547   4.629   5.939   5.279 -1.1933 -1.3806 -1.4739
 9715WAT     H229548   4.705   6.064   5.241 -0.5336 -0.8742  1.2400
 9716WAT      O29549   6.470   2.567   5.270 -0.0274  0.0554 -0.5130
 9716WAT     H129550   6.413   2.644   5.278  0.4689  0.4686 -0.8852
 9716WAT     H229551   6.439   2.521   5.192  0.1511  0.2898 -0.7256
 9717WAT      O29552   5.136   0.929   3.673 -0.2811  0.4208  0.2326
 9717WAT     H129553   5.059   0.986   3.680 -0.8654 -0.3190  0.0669
 9717WAT     H229554   5.173   0.949   3.588 -0.3773  0.6825  0.2516
 9718WAT      O29555   5.249   6.088   3.308  0.0016  0.4244  0.1464
 9718WAT     H129556   5.192   6.124   3.376 -1.0693  1.5508 -1.2989
 9718WAT     H229557   5.304   6.162   3.282  0.0062  0.1604 -0.6042
 9719WAT      O29558   3.008   6.794   2.861  0.3660  0.5695 -0.0764
 9719WAT     H129559   2.926   6.831   2.893  0.8224  0.7167  0.9917
 9719WAT     H229560   2.988   6.760   2.775 -0.6134  1.3357 -0.1645
 9720WAT      O29561   5.053   1.656   1.696 -0.3386 -0.4769  0.4211
 9720WAT     H129562   5.069   1.679   1.788  2.2576 -1.2571  0.2466
 9720WAT     H229563   5.115   1.710   1.647 -2.8440  1.2078 -1.1331
 9721WAT      O29564   5.168   0.735   3.419  0.0072 -0.3107  0.1004
 9721WAT     H129565   5.237   0.708   3.357 -1.7012 -1.2940 -1.4713
 9721WAT     H229566   5.183   0.829   3.432  2.0481 -0.6307  0.3713
 9722WAT      O29567   5.994   3.549   5.804 -0.5478 -1.0810 -0.1780
 9722WAT     H129568   6.018   3.458   5.823 -0.7471 -0.9571  0.6809
 9722WAT     H229569   6.025   3.599   5.880 -2.7048 -0.7898  0.5673
 9723WAT      O29570   1.702   2.997   3.432 -0.1406 -0.3282  0.4419
 9723WAT     H129571   1.778   2.986   3.375  1.7464  2.0858  2.2836
 9723WAT     H229572   1.699   3.091   3.451 -1.9463 -0.7283  2.5618
 9724WAT      O29573   3.543   0.009   0.466 -0.2239  0.0534 -0.5546
 9724WAT     H129574   3.475  -0.030   0.521  0.2200  1.3171  0.9408
 9724WAT     H229575   3.576  -0.065   0.414 -0.5974 -1.2009  0.9088
 9725WAT      O29576   0.422   4.838   1.219  0.1151 -0.6478  0.4930
 9725WAT     H129577   0.405   4.826   1.125 -0.2956  0.3523  0.4206
 9725WAT     H229578   0.335   4.854   1.257  0.4554  0.9305  0.7058
 9726WAT      O29579   6.540   2.394   5.456  0.1084 -0.1656  0.0098
 9726WAT     H129580   6.452   2.371   5.486  0.4622 -1.1729  0.3235
 9726WAT     H229581   6.526   2.448   5.378 -0.8082  1.3125  1.1379
 9727WAT      O29582   1.928   5.780   5.573  0.1634  0.1596 -0.2650
 9727WAT     H129583   1.849   5.727   5.584  0.8826 -1.1016 -1.0030
 9727WAT     H229584   1.900   5.851   5.514 -0.0466 -1.1985 -1.8782
 9728WAT      O29585   7.255   2.534   1.715  0.1521  0.2623 -0.8325
 9728WAT     H129586   7.285   2.537   1.805  1.9878  2.0881 -1.4199
 9728WAT     H229587   7.214   2.448   1.706  2.0930 -0.9760  1.0819
 9729WAT      O29588   3.347   2.973   1.743  0.1026  0.1564 -0.4643
 9729WAT     H129589   3.296   2.921   1.805 -1.2916 -0.4160 -2.0034
 9729WAT     H229590   3.370   2.912   1.673 -0.6650  1.3148 -1.7895
 9730WAT      O29591   6.360   1.920   6.188  0.8408 -0.1002  0.2037
 9730WAT     H129592   6.314   1.978   6.250  1.0450 -0.6807  0.9112
 9730WAT     H229593   6.370   1.838   6.235  1.0558 -0.5392 -0.5912
 9731WAT      O29594   6.254   2.652   0.844 -0.5545 -0.4662 -0.2110
 9731WAT     H129595   6.250   2.647   0.939  0.8858 -2.1641 -0.1845
 9731WAT     H229596   6.216   2.569   0.814  1.8069 -1.3547 -0.9548
 9732WAT      O29597   5.046   6.303   4.043 -0.3786 -0.3341 -0.1140
 9732WAT     H129598   5.044   6.397   4.064 -0.1747 -0.7883  2.2038
 9732WAT     H229599   4.997   6.262   4.114  2.1108 -2.2285  0.6521
 9733WAT      O29600   5.153   6.844   3.511 -0.7134  0.1807 -0.0494
 9733WAT     H129601   5.142   6.929   3.555 -0.0205 -0.5884  1.6893
 9733WAT     H229602   5.143   6.864   3.418  0.3740  2.3520  0.2370
 9734WAT      O29603   4.194   4.628   1.875  0.4311 -0.0003 -0.2629
 9734WAT     H129604   4.156   4.595   1.957  0.3909 -1.2075 -0.7545
 9734WAT     H229605   4.243   4.707   1.902  1.9902 -1.3946  1.2752
 9735WAT      O29606   5.770   3.108   1.989  0.1418  0.1388 -0.2210
 9735WAT     H129607   5.793   3.159   2.066 -0.5216 -1.6216  1.1997
 9735WAT     H229608   5.835   3.038   1.985 -1.4309 -1.4558  0.4658
 9736WAT      O29609   5.268   5.667   1.032  0.4434  0.4384  0.3225
 9736WAT     H129610   5.271   5.636   1.123 -1.3616  1.1493  0.6814
 9736WAT     H229611   5.355   5.704   1.016  0.9356 -0.0987  1.5972
 9737WAT      O29612   1.956   4.434   2.753 -0.5724  0.0004  0.1193
 9737WAT     H129613   2.004   4.374   2.811 -3.0243 -0.3670  1.9471
 9737WAT     H229614   1.917   4.498   2.813  1.6180  3.3116 -1.7396
 9738WAT      O29615   5.637   3.364   1.170 -0.7380  0.0355  0.2716
 9738WAT     H129616   5.621   3.362   1.264 -0.0845  2.1414  0.4785
 9738WAT     H229617   5.726   3.330   1.160 -1.2584 -1.3885  0.2465
 9739WAT      O29618   2.606   1.472   4.261  0.4707  0.2841 -0.2133
 9739WAT     H129619   2.512   1.492   4.253  0.7718  1.5824 -0.9147
 9739WAT     H229620   2.629   1.503   4.349  0.5110  1.2479 -0.5513
 9740WAT      O29621   0.559   6.850   0.502  0.3444 -0.2906 -0.2141
 9740WAT     H129622   0.621   6.816   0.438 -0.8381 -0.2121 -1.4418
 9740WAT     H229623   0.600   6.930   0.535  0.1480  0.7440 -2.3360
 9741WAT      O29624   4.876   6.666   6.131 -0.1524 -0.6714  0.3784
 9741WAT     H129625   4.839   6.745   6.171 -0.5688 -0.3674 -0.5736
 9741WAT     H229626   4.860   6.678   6.037 -0.5783 -2.0669  0.2573
 9742WAT      O29627   3.785   3.575   0.791 -0.0029  0.3625 -0.1964
 9742WAT     H129628   3.840   3.648   0.764 -0.2270  0.4995 -0.2801
 9742WAT     H229629   3.804   3.562   0.884 -0.6571  1.1311  0.0527
 9743WAT      O29630   0.946   2.797   1.068  0.4855 -1.2429  0.3748
 9743WAT     H129631   1.008   2.728   1.044 -0.1402 -2.8463  2.9766
 9743WAT     H229632   0.976   2.828   1.153 -1.1406 -0.6576  0.7736
 9744WAT      O29633   2.248   0.025   3.008  0.2849  0.0318 -0.1276
 9744WAT     H129634   2.284  -0.038   2.945  1.0969  1.2557 -0.9255
 9744WAT     H229635   2.318   0.036   3.073 -0.2387 -0.6121  0.5667
 9745WAT      O29636   0.666   6.473   0.729 -0.1532 -0.1184 -0.1387
 9745WAT     H129637   0.739   6.532   0.747 -1.1190  1.1345 -0.2020
 9745WAT     H229638   0.700   6.411   0.664  0.4113  1.3928 -1.3335
 9746WAT      O29639   4.604   0.738   6.176 -0.0937 -0.0700 -0.4829
 9746WAT     H129640   4.670   0.754   6.244 -1.1016  0.7128  0.3444
 9746WAT     H229641   4.523   0.722   6.225 -1.1354  1.7905 -1.5063
 9747WAT      O29642   2.434   2.439   0.307 -0.5689 -0.3144  0.2253
 9747WAT     H129643   2.359   2.470   0.358 -0.4063  1.7970 -0.7137
 9747WAT     H229644   2.505   2.500   0.329  0.4262 -1.3078 -0.1133
 9748WAT      O29645   6.363   0.259   0.869 -0.0103  0.4182 -0.2598
 9748WAT     H129646   6.417   0.204   0.812  0.7188  0.0867  0.7184
 9748WAT     H229647   6.401   0.247   0.957  0.3151  2.6479 -0.0346
 9749WAT      O29648   3.872   3.915   0.828  0.4000 -0.3304  0.4328
 9749WAT     H129649   3.869   3.981   0.897 -0.1560 -1.5025  1.5539
 9749WAT     H229650   3.787   3.921   0.785  0.0218 -0.8857  1.0909
 9750WAT      O29651   4.136   0.731   3.368  0.1406  0.5146  0.2533
 9750WAT     H129652   4.050   0.741   3.407  0.7593  0.2511  1.7276
 9750WAT     H229653   4.156   0.638   3.375  0.4059  0.5182 -0.3826
 9751WAT      O29654   1.247   6.906   5.886 -0.5978 -0.4092  0.2065
 9751WAT     H129655   1.268   6.999   5.881  1.0897 -0.8226 -1.7941
 9751WAT     H229656   1.298   6.874   5.961 -0.5698  0.1245  0.4219
 9752WAT      O29657   1.021   2.035   3.615 -0.1421  0.6739 -0.5089
 9752WAT     H129658   1.097   2.070   3.661 -0.8868 -0.2809  1.5527
 9752WAT     H229659   0.967   2.112   3.596  0.6602  1.1950 -0.7599
 9753WAT      O29660   7.461   5.797   0.351 -0.1724 -0.7629  0.1526
 9753WAT     H129661   7.439   5.877   0.398 -0.0701 -0.5016 -0.2381
 9753WAT     H229662   7.377   5.753   0.337 -0.3640 -0.1572 -0.6414
 9754WAT      O29663   7.358   4.752   4.748  0.4569 -0.2365 -0.4490
 9754WAT     H129664   7.300   4.805   4.694  0.7872  0.3189 -0.2728
 9754WAT     H229665   7.301   4.717   4.817  0.3112  0.2398 -0.3220
 9755WAT      O29666   6.626   3.080   3.958 -0.6615 -0.2794 -0.0425
 9755WAT     H129667   6.655   3.130   4.034 -0.0312  3.2440 -2.3739
 9755WAT     H229668   6.688   3.008   3.951  0.3930  0.4028  1.6804
 9756WAT      O29669   0.106   7.122   5.505 -0.1381 -0.0757 -0.1535
 9756WAT     H129670   0.122   7.111   5.411  0.3085 -2.6924  0.1560
 9756WAT     H229671   0.169   7.189   5.532 -1.5116  2.1142 -1.9709
 9757WAT      O29672   6.284   4.055   0.322  0.3620 -0.4840 -0.5260
 9757WAT     H129673   6.350   4.003   0.276  0.4874  0.7324 -1.7901
 9757WAT     H229674   6.234   4.096   0.252  0.3192  1.1662  0.4353
 9758WAT      O29675   3.548   6.174   2.374 -0.6203  0.2443  0.3241
 9758WAT     H129676   3.593   6.197   2.455  0.0895  0.6657 -0.1815
 9758WAT     H229677   3.612   6.191   2.305 -1.3656  0.3270 -0.3639
 9759WAT      O29678   4.048   0.917   3.610 -0.2320  0.0594 -0.1274
 9759WAT     H129679   4.024   0.923   3.702  0.2672  0.7145 -0.0270
 9759WAT     H229680   4.035   1.006   3.576  0.5755  0.0752 -0.4261
 9760WAT      O29681   5.195   1.261   0.001  0.0168 -0.1620  0.6037
 9760WAT     H129682   5.276   1.265  -0.050 -1.2863 -1.9870 -1.7680
 9760WAT     H229683   5.221   1.219   0.083  1.9272  1.7313  1.0770
 9761WAT      O29684   0.107   5.227   5.240  0.2374 -0.1426 -0.1504
 9761WAT     H129685   0.035   5.174   5.276  0.5677  0.2578  1.1829
 9761WAT     H229686   0.065   5.289   5.181 -0.2702 -1.2224 -0.9459
 9762WAT      O29687   3.840   1.687   6.228  0.1798 -0.2265 -0.0120
 9762WAT     H129688   3.894   1.725   6.297 -1.5706 -0.8191  1.7953
 9762WAT     H229689   3.797   1.762   6.186  1.2769  0.1392 -0.5227
 9763WAT      O29690   6.993   2.258   5.596 -0.3744  0.0489  0.0134
 9763WAT     H129691   6.986   2.178   5.648  0.1722  0.6675  1.0698
 9763WAT     H229692   6.907   2.298   5.600 -0.5771 -0.3440 -0.3039
 9764WAT      O29693   3.774   2.293   3.482 -0.2013  0.5297  0.1688
 9764WAT     H129694   3.853   2.246   3.456 -0.4208 -0.0008  0.4491
 9764WAT     H229695   3.792   2.324   3.571  0.1260  1.4026 -0.1832
 9765WAT      O29696   0.752   4.494   3.832 -0.4953  0.2406  0.1657
 9765WAT     H129697   0.668   4.522   3.794  0.4723  2.3340 -0.5652
 9765WAT     H229698   0.731   4.476   3.924 -2.1373 -1.3266 -0.4532
 9766WAT      O29699   4.815   7.008   2.654 -0.5861  0.3432 -0.5181
 9766WAT     H129700   4.863   7.090   2.671  0.0926  0.0585 -1.0084
 9766WAT     H229701   4.859   6.970   2.578 -0.9838 -0.4125 -0.3771
 9767WAT      O29702   3.675   2.310   5.372  1.0555  0.3782 -0.4346
 9767WAT     H129703   3.632   2.383   5.327 -0.8088 -0.6068 -0.3919
 9767WAT     H229704   3.628   2.303   5.455 -1.2110 -2.8608 -1.7674
 9768WAT      O29705   5.568   2.919   4.131  0.7158  0.1406  0.4616
 9768WAT     H129706   5.644   2.883   4.084  1.4680  0.3371  1.4746
 9768WAT     H229707   5.536   2.845   4.183 -0.0763 -0.0625 -0.3051
 9769WAT      O29708   5.319   4.500   6.169  0.3505 -0.2698  0.3392
 9769WAT     H129709   5.375   4.571   6.137 -2.0307  1.1171 -1.0585
 9769WAT     H229710   5.333   4.428   6.108  0.7921 -0.0196  0.1485
 9770WAT      O29711   3.835   5.396   2.262  0.0937 -0.1258 -0.2131
 9770WAT     H129712   3.913   5.388   2.317 -0.1215  0.3103  0.1675
 9770WAT     H229713   3.783   5.318   2.283  1.3118 -1.4762 -1.9448
 9771WAT      O29714   5.955   0.769   2.499  0.1241 -0.3862  0.6792
 9771WAT     H129715   6.030   0.829   2.489 -0.9897  0.9161 -0.2069
 9771WAT     H229716   5.991   0.695   2.548  1.7380  0.6638  1.1854
 9772WAT      O29717   4.054   1.519   3.474  0.0606 -0.1157  0.5630
 9772WAT     H129718   4.019   1.514   3.563  1.5649 -0.0855  1.1983
 9772WAT     H229719   4.143   1.553   3.486  1.1315 -2.2938 -0.7336
 9773WAT      O29720   0.859   5.058   6.127  0.2284 -0.1671 -0.7105
 9773WAT     H129721   0.790   5.094   6.072  0.9444  0.5440 -1.1733
 9773WAT     H229722   0.889   5.133   6.180  1.2434 -0.2326 -1.1660
 9774WAT      O29723   6.490   1.080   6.233  0.3272 -0.1708  0.1132
 9774WAT     H129724   6.487   1.149   6.299  1.9405  0.8929 -0.8527
 9774WAT     H229725   6.544   1.012   6.273 -1.5503 -1.0994  1.2049
 9775WAT      O29726   0.040   1.600   2.940 -0.2752  0.4168  0.2488
 9775WAT     H129727   0.023   1.673   2.999  0.5960 -1.3599  2.9191
 9775WAT     H229728   0.135   1.594   2.936 -0.3300 -0.1752 -0.4975
 9776WAT      O29729   4.877   1.822   0.350  0.3359  0.5144 -0.2003
 9776WAT     H129730   4.877   1.790   0.260  2.6796 -1.0170  0.2651
 9776WAT     H229731   4.967   1.851   0.366  0.8651 -2.1149  2.5115
 9777WAT      O29732   5.750   0.711   5.238  0.1351  0.2059  0.0502
 9777WAT     H129733   5.655   0.710   5.250  0.0813 -3.1038  0.2904
 9777WAT     H229734   5.786   0.709   5.327  0.3409 -0.7445 -0.0424
 9778WAT      O29735   7.409   3.328   5.188 -0.5781  0.4186 -0.5007
 9778WAT     H129736   7.450   3.310   5.272  0.8097  1.4938 -0.9206
 9778WAT     H229737   7.321   3.291   5.196 -0.2794  0.0031  1.2033
 9779WAT      O29738   0.737   5.470   6.030 -0.4101 -0.0812 -0.1833
 9779WAT     H129739   0.747   5.519   6.112  0.1135  0.6770 -0.6901
 9779WAT     H229740   0.760   5.533   5.962  1.9331 -1.4762 -0.7759
 9780WAT      O29741   6.617   4.736   5.190  0.0586  0.2933  0.2262
 9780WAT     H129742   6.674   4.773   5.257  1.3938 -0.5444 -0.3907
 9780WAT     H229743   6.663   4.657   5.161 -0.5985  0.4910 -1.4807
 9781WAT      O29744   2.295   3.679   5.684 -0.1039  0.2078 -0.2253
 9781WAT     H129745   2.257   3.726   5.610  0.0971  1.1893  0.2781
 9781WAT     H229746   2.221   3.660   5.741 -0.0275  1.0466  0.1717
 9782WAT      O29747   7.473   6.950   3.246  0.1045 -0.1211  0.2943
 9782WAT     H129748   7.481   6.926   3.339 -0.6840  0.0379  0.4101
 9782WAT     H229749   7.512   6.876   3.199  2.6710  0.8171  0.7851
 9783WAT      O29750   6.958   5.966   3.238 -0.5856 -0.2030 -0.3900
 9783WAT     H129751   6.924   6.055   3.229 -0.5045  0.1697  2.2749
 9783WAT     H229752   6.981   5.958   3.331  1.4447 -2.2884 -0.9847
 9784WAT      O29753   0.131   1.368   4.987 -0.6704 -0.4913  0.3409
 9784WAT     H129754   0.133   1.448   4.935  0.8380 -1.1660 -0.7230
 9784WAT     H229755   0.200   1.379   5.052 -0.6671 -0.8138  0.3947
 9785WAT      O29756   6.064   0.209   1.277  0.0898 -0.3235 -0.0383
 9785WAT     H129757   6.059   0.282   1.338  1.3073 -0.0606 -0.2261
 9785WAT     H229758   5.973   0.193   1.251 -0.3512  0.1402  1.1428
 9786WAT      O29759   3.171   3.189   5.548 -0.0506 -0.1490  0.1886
 9786WAT     H129760   3.143   3.206   5.638  1.7296 -0.0261  0.7660
 9786WAT     H229761   3.147   3.097   5.533 -0.7373 -0.0501  0.6264
 9787WAT      O29762   3.515   6.661   3.015  0.0259 -0.1727 -0.3274
 9787WAT     H129763   3.605   6.644   3.043  0.3373  1.6252 -0.1267
 9787WAT     H229764   3.515   6.753   2.988 -1.5751 -0.3591 -1.0641
 9788WAT      O29765   4.179   4.744   4.714 -0.2918 -0.4417 -0.1692
 9788WAT     H129766   4.127   4.808   4.762 -1.7503 -1.5028 -0.2716
 9788WAT     H229767   4.179   4.666   4.769  1.8952 -0.2631  0.1986
 9789WAT      O29768   0.509   0.785   4.491 -0.0172 -0.1575  0.3547
 9789WAT     H129769   0.562   0.864   4.478 -1.6343  0.6009 -2.3901
 9789WAT     H229770   0.421   0.818   4.510 -0.5533 -1.2921 -0.0344
 9790WAT      O29771   6.282   7.166   3.579  0.0862  0.3435  0.5729
 9790WAT     H129772   6.227   7.088   3.583 -0.6047  0.7653 -0.3819
 9790WAT     H229773   6.222   7.237   3.559  0.7907  1.0356  0.8483
 9791WAT      O29774   0.241   1.050   1.055 -0.0912 -0.5620 -0.3756
 9791WAT     H129775   0.315   1.021   1.002  0.0781 -1.2003  0.1882
 9791WAT     H229776   0.238   0.987   1.127  1.5027  1.8765  2.0387
 9792WAT      O29777   3.574   3.365   1.136 -0.1030  0.2751 -0.5944
 9792WAT     H129778   3.660   3.392   1.104 -0.5354  1.0437 -1.1376
 9792WAT     H229779   3.565   3.409   1.220  0.4663 -0.6524 -0.0363
 9793WAT      O29780   4.385   3.328   5.761 -0.3795  0.1409 -0.4377
 9793WAT     H129781   4.290   3.338   5.752 -1.4173 -4.3694  2.3799
 9793WAT     H229782   4.408   3.384   5.835 -1.0768  0.3120 -0.3431
 9794WAT      O29783   2.702   4.645   3.964  0.0505  0.2856  0.0274
 9794WAT     H129784   2.695   4.740   3.976 -1.3489 -0.0147  2.2134
 9794WAT     H229785   2.661   4.628   3.880 -1.8806  1.4289  0.6688
 9795WAT      O29786   6.900   4.091   6.231 -0.3633  0.1395 -0.5668
 9795WAT     H129787   6.985   4.123   6.262  0.3654 -1.3372 -0.9234
 9795WAT     H229788   6.835   4.138   6.284  0.3315  4.8666 -3.3902
 9796WAT      O29789   7.015   2.373   3.088 -0.3971 -0.2212  0.1557
 9796WAT     H129790   7.086   2.378   3.024 -0.5663 -2.7988 -0.3103
 9796WAT     H229791   6.994   2.280   3.096 -2.3151  0.2545  1.8674
 9797WAT      O29792   7.120   2.041   0.475 -0.1931  0.2046  0.2452
 9797WAT     H129793   7.184   2.034   0.546 -1.1722 -0.7831  1.0587
 9797WAT     H229794   7.171   2.024   0.396  1.0490  1.9666  0.6000
 9798WAT      O29795   7.502   5.037   2.285 -0.4241 -0.0475 -0.3192
 9798WAT     H129796   7.504   5.124   2.325  0.5115 -0.1925 -0.0236
 9798WAT     H229797   7.512   4.977   2.359 -0.5644 -0.3953 -0.5799
 9799WAT      O29798   4.444   6.443   2.485 -0.0867  0.4472  0.0211
 9799WAT     H129799   4.507   6.514   2.495 -0.3203  0.5722  0.6117
 9799WAT     H229800   4.393   6.444   2.566  0.0883 -0.5668  0.1623
 9800WAT      O29801   1.061   6.415   2.740  0.0616  0.6843 -0.4719
 9800WAT     H129802   1.078   6.321   2.734 -0.4953  0.4740  0.9562
 9800WAT     H229803   1.148   6.455   2.733  0.4425 -0.0147  0.0849
 9801WAT      O29804   0.010   4.786   3.437  0.3747 -0.1528  0.4922
 9801WAT     H129805  -0.039   4.703   3.436 -0.2506  0.1967  1.3085
 9801WAT     H229806  -0.054   4.851   3.465  0.6664  0.7455 -0.8614
 9802WAT      O29807   2.773   2.324   0.689 -0.2319  0.3630  0.7752
 9802WAT     H129808   2.740   2.297   0.602  0.1149  0.2351  0.6835
 9802WAT     H229809   2.784   2.242   0.736  0.9879  0.3129  0.4409
 9803WAT      O29810   2.395   1.377   5.951  0.4967  0.4639 -0.2748
 9803WAT     H129811   2.388   1.462   5.910 -0.0675  1.1845  1.2400
 9803WAT     H229812   2.358   1.316   5.887 -1.8966  1.7415 -0.2229
 9804WAT      O29813   2.123   6.949   2.799 -0.3290 -0.1232 -0.2209
 9804WAT     H129814   2.110   7.029   2.849 -3.5278 -1.6261  1.6879
 9804WAT     H229815   2.131   6.978   2.708  0.8184  2.4088  0.6013
 9805WAT      O29816   4.684   3.449   1.589 -0.0905 -0.1484  0.1485
 9805WAT     H129817   4.637   3.368   1.603  0.2298 -0.2958  0.3983
 9805WAT     H229818   4.677   3.496   1.673  0.0140 -0.0738  0.1167
 9806WAT      O29819   6.431   6.696   5.855 -0.6514 -0.6345 -0.2966
 9806WAT     H129820   6.381   6.617   5.874 -1.2281 -0.5598 -1.4262
 9806WAT     H229821   6.385   6.765   5.903  0.4875 -1.1274  1.5812
 9807WAT      O29822   1.353   0.883   0.857 -0.1595 -0.1929 -0.4033
 9807WAT     H129823   1.394   0.804   0.823 -0.1794 -0.7514  0.8197
 9807WAT     H229824   1.419   0.951   0.845  0.6631 -0.8299  0.3949
 9808WAT      O29825   0.465   2.529   1.461  0.7845  0.6230  0.1458
 9808WAT     H129826   0.448   2.583   1.538  1.6507  1.3717 -0.1694
 9808WAT     H229827   0.536   2.470   1.488  0.1940 -0.0174  0.3246
 9809WAT      O29828   7.467   1.744   4.491 -0.1050  0.0432  0.0045
 9809WAT     H129829   7.429   1.785   4.568 -2.4665 -1.1016 -0.4574
 9809WAT     H229830   7.392   1.705   4.445  1.7292 -3.4362 -0.3788
 9810WAT      O29831   0.085   2.231   4.090 -0.6644 -0.9718  0.2989
 9810WAT     H129832   0.054   2.172   4.159 -1.6110  1.5970  2.2365
 9810WAT     H229833   0.087   2.317   4.131  0.4992  0.4270 -2.4179
 9811WAT      O29834   1.286   5.310   2.287 -0.4635  0.2522 -0.0646
 9811WAT     H129835   1.230   5.242   2.326  0.3612  0.6158  1.8595
 9811WAT     H229836   1.307   5.368   2.360  1.7612  0.5804 -0.8999
 9812WAT      O29837   6.555   4.786   0.437  0.4365 -0.1663  0.3299
 9812WAT     H129838   6.596   4.714   0.389 -0.4691 -0.4600 -0.0442
 9812WAT     H229839   6.476   4.746   0.475 -0.6214  0.8368 -0.7072
 9813WAT      O29840   5.054   0.264   1.174 -0.2218 -0.0057 -0.2076
 9813WAT     H129841   5.038   0.350   1.214 -0.3188  0.1890 -0.6548
 9813WAT     H229842   5.016   0.272   1.087 -4.2243 -1.8634  1.1251
 9814WAT      O29843   7.192   7.007   3.446 -0.2571 -0.0111  0.3647
 9814WAT     H129844   7.270   7.062   3.455  0.2668 -0.9619  2.1884
 9814WAT     H229845   7.143   7.020   3.527 -0.2638 -1.9413  0.7224
 9815WAT      O29846   3.144   5.817   4.982  0.3985  0.0876  0.0788
 9815WAT     H129847   3.060   5.771   4.980  0.5396 -0.1658 -0.9950
 9815WAT     H229848   3.145   5.863   5.066 -0.3433 -0.7638  0.5730
 9816WAT      O29849   5.107   6.674   1.131  0.0605 -0.0462  0.0035
 9816WAT     H129850   5.013   6.682   1.148 -0.3031 -1.8395 -0.9620
 9816WAT     H229851   5.147   6.671   1.218 -0.8426  0.0399  0.4307
 9817WAT      O29852   1.560   6.028   0.610 -0.0206  0.3640 -0.3175
 9817WAT     H129853   1.567   5.933   0.602 -1.3217 -0.0420  2.4035
 9817WAT     H229854   1.482   6.050   0.560 -0.8645 -0.2961  0.6838
 9818WAT      O29855   6.704   4.077   2.436  0.0572  0.3095  0.1340
 9818WAT     H129856   6.709   4.160   2.389  1.2536  0.4893  0.5505
 9818WAT     H229857   6.743   4.014   2.376 -0.3594  0.1355  0.0397
 9819WAT      O29858   7.139   3.138   2.389 -0.0854  0.4381 -0.3448
 9819WAT     H129859   7.187   3.107   2.313  0.6367 -0.9064  0.6048
 9819WAT     H229860   7.207   3.157   2.454 -0.7619 -1.6993  1.1031
 9820WAT      O29861   7.172   0.215   3.109  0.1188 -0.3390  0.0737
 9820WAT     H129862   7.119   0.276   3.057  0.5991  1.2101  1.3422
 9820WAT     H229863   7.109   0.172   3.167  0.1359  1.2826  1.3721
 9821WAT      O29864   0.565   0.051   3.136  0.1472 -0.0636  0.3425
 9821WAT     H129865   0.643   0.092   3.173  0.3242  0.2407 -0.3419
 9821WAT     H229866   0.529   0.118   3.078 -0.7224 -0.1424  0.7868
 9822WAT      O29867   4.961   1.945   2.885 -1.4692  0.5220 -0.7355
 9822WAT     H129868   5.004   1.955   2.799 -1.5638 -0.2756 -0.8843
 9822WAT     H229869   4.962   2.033   2.922 -2.5392  1.1385 -2.0824
 9823WAT      O29870   3.492   0.246   0.124 -0.7789 -0.0021  0.1114
 9823WAT     H129871   3.430   0.189   0.080 -0.8416  0.4102 -0.3402
 9823WAT     H229872   3.446   0.329   0.135 -0.6876 -0.0346  0.7602
 9824WAT      O29873   4.857   5.769   5.998  0.2710 -0.1155  0.2195
 9824WAT     H129874   4.872   5.734   6.085 -0.9640 -0.1664  0.4338
 9824WAT     H229875   4.928   5.733   5.944 -0.0866 -1.6909  0.7598
 9825WAT      O29876   0.730   5.083   4.247 -0.4037 -0.7247  0.5284
 9825WAT     H129877   0.801   5.120   4.299  1.2747 -1.2161 -1.2724
 9825WAT     H229878   0.655   5.140   4.264  1.2639  1.7391  0.1736
 9826WAT      O29879   2.246   6.978   5.887 -0.0824  0.2977  0.1577
 9826WAT     H129880   2.294   6.915   5.941 -0.4452  0.6355  0.8815
 9826WAT     H229881   2.207   7.039   5.950  0.4016  1.3551 -0.5318
 9827WAT      O29882   7.297   5.281   3.656  0.3538  0.1025  0.1318
 9827WAT     H129883   7.391   5.291   3.671  0.3219 -0.6053  0.8867
 9827WAT     H229884   7.270   5.213   3.717 -0.6513  0.2792 -0.0916
 9828WAT      O29885   7.182   6.318   3.981 -0.3367  0.0514  0.1802
 9828WAT     H129886   7.187   6.224   4.002 -0.2674 -0.4362 -1.8038
 9828WAT     H229887   7.146   6.358   4.060  0.3541 -1.5288  1.3625
 9829WAT      O29888   7.475   3.306   3.393 -0.0163  0.1727  0.3789
 9829WAT     H129889   7.562   3.280   3.421  0.1505 -0.2385 -0.4722
 9829WAT     H229890   7.460   3.256   3.312  0.0673  2.2267 -0.9922
 9830WAT      O29891   1.704   5.420   2.465 -0.7280 -0.5254  0.0245
 9830WAT     H129892   1.796   5.402   2.446  0.5653  2.0872  2.9841
 9830WAT     H229893   1.698   5.418   2.561 -2.3585  4.5654  0.3281
 9831WAT      O29894   4.122   6.660   3.739  0.1748 -0.2667  0.2495
 9831WAT     H129895   4.210   6.696   3.729  0.2341  0.0210  1.5516
 9831WAT     H229896   4.136   6.570   3.767  0.0416 -0.5333 -0.5250
 9832WAT      O29897   4.072   2.978   2.762  0.4505  0.0982  0.5217
 9832WAT     H129898   4.132   2.977   2.836  0.7915 -1.1060  0.2470
 9832WAT     H229899   4.026   3.062   2.770  0.1039 -0.2208  2.3801
 9833WAT      O29900   0.102   5.702   3.927  0.1173 -0.3839 -0.3792
 9833WAT     H129901   0.163   5.769   3.896  1.3913 -0.6198  1.4618
 9833WAT     H229902   0.023   5.751   3.951  0.3730  0.2204 -0.7506
 9834WAT      O29903   7.455   4.135   0.509  0.0980  0.0792  0.4395
 9834WAT     H129904   7.412   4.220   0.520  1.4796  0.6806  1.4617
 9834WAT     H229905   7.502   4.121   0.591  0.2249 -1.5057  0.1346
 9835WAT      O29906   4.344   4.541   0.709  0.5989 -0.1560 -0.1511
 9835WAT     H129907   4.359   4.454   0.748 -2.2065 -0.2289  0.9527
 9835WAT     H229908   4.395   4.600   0.764  1.5320 -0.9242 -0.1448
 9836WAT      O29909   2.206   6.440   5.750  0.0628  0.0008  0.5305
 9836WAT     H129910   2.194   6.517   5.806  3.9854 -0.0937  1.8557
 9836WAT     H229911   2.193   6.365   5.809 -1.0080 -0.2836 -0.0542
 9837WAT      O29912   0.062   1.232   0.916 -0.1800  0.1022 -0.1222
 9837WAT     H129913   0.127   1.199   0.978 -0.9859 -0.6600  0.3224
 9837WAT     H229914  -0.021   1.193   0.943 -1.2925  2.7977  0.7021
 9838WAT      O29915   7.552   2.489   2.554  0.1471  0.0947  0.5056
 9838WAT     H129916   7.599   2.422   2.604  1.7554  1.0833  0.3955
 9838WAT     H229917   7.463   2.488   2.590  0.4686 -1.2390  1.3380
 9839WAT      O29918   1.385   4.441   1.421 -0.3319  0.2635  0.2266
 9839WAT     H129919   1.411   4.533   1.414  0.9374  0.0564  1.7093
 9839WAT     H229920   1.326   4.439   1.496 -1.5005  0.0602 -0.6632
 9840WAT      O29921   7.056   1.088   4.906  0.0208  0.8937  0.5543
 9840WAT     H129922   7.027   1.173   4.873 -2.0304  0.2631  0.5918
 9840WAT     H229923   7.024   1.084   4.996  0.8580  0.4055  0.8475
 9841WAT      O29924   0.508   7.079   5.692 -0.3761  0.1185 -0.1146
 9841WAT     H129925   0.543   7.136   5.760 -0.3779  0.8135 -0.6803
 9841WAT     H229926   0.414   7.073   5.712 -0.1926 -0.5679  0.5654
 9842WAT      O29927   3.159   5.163   5.132  0.5244 -0.0992 -0.2285
 9842WAT     H129928   3.189   5.167   5.222 -1.8428 -1.9517  0.7312
 9842WAT     H229929   3.108   5.243   5.119 -0.0172 -0.3303  0.4477
 9843WAT      O29930   4.037   1.577   4.974 -0.0541 -0.6791  0.9817
 9843WAT     H129931   4.104   1.617   4.919 -2.9296 -1.1880 -3.4109
 9843WAT     H229932   4.043   1.483   4.957 -1.9381 -0.7206  0.2402
 9844WAT      O29933   4.581   2.697   3.568 -0.4728  0.0315  1.1956
 9844WAT     H129934   4.640   2.768   3.540 -1.4450  0.2592 -0.4016
 9844WAT     H229935   4.633   2.618   3.556 -0.4473  0.2286 -0.1956
 9845WAT      O29936   0.378   2.400   1.220 -0.3800  0.0594  0.2608
 9845WAT     H129937   0.367   2.307   1.242  0.8627 -0.3645 -0.7786
 9845WAT     H229938   0.395   2.442   1.305  0.8486 -0.9664  0.5655
 9846WAT      O29939   1.444   5.173   5.288 -0.5017  0.0553 -0.0814
 9846WAT     H129940   1.483   5.260   5.298 -0.2068  0.0256 -0.9051
 9846WAT     H229941   1.427   5.145   5.378  1.0320  0.2346  0.3060
 9847WAT      O29942   2.901   2.599   2.602 -0.6805  0.5492 -0.1371
 9847WAT     H129943   2.846   2.630   2.529  0.7935 -0.4530 -1.7518
 9847WAT     H229944   2.848   2.533   2.646 -1.1397  0.2569 -1.0974
 9848WAT      O29945   0.305   0.839   3.623  0.3999 -0.4789  1.1505
 9848WAT     H129946   0.356   0.823   3.703  2.5855 -0.3702 -0.1467
 9848WAT     H229947   0.327   0.929   3.598 -1.2675 -0.0499  1.0511
 9849WAT      O29948   6.661   0.665   3.809 -0.3376  0.6858 -0.1877
 9849WAT     H129949   6.668   0.755   3.840  0.0268  1.0307 -1.2202
 9849WAT     H229950   6.713   0.614   3.871  0.1027  1.3006 -0.0410
 9850WAT      O29951   4.459   3.836   2.240  0.6031 -0.9518  0.2012
 9850WAT     H129952   4.366   3.811   2.242  0.0605  0.7686 -1.0366
 9850WAT     H229953   4.475   3.871   2.327 -0.2262 -0.2991  0.1096
 9851WAT      O29954   7.012   1.660   4.527  0.1169  0.2079  0.0633
 9851WAT     H129955   6.953   1.695   4.594  1.3109 -0.7862  1.6984
 9851WAT     H229956   7.072   1.603   4.575  0.0851 -1.7761 -2.0729
 9852WAT      O29957   6.085   3.027   1.971 -0.4334 -0.0383 -0.1458
 9852WAT     H129958   6.178   3.022   1.994 -0.1534 -1.5049 -1.4206
 9852WAT     H229959   6.084   3.039   1.876 -1.5538  1.0277 -0.0168
 9853WAT      O29960   4.155   2.288   1.398  0.3491 -0.8073 -0.1614
 9853WAT     H129961   4.228   2.349   1.408  1.0566 -1.8793  2.1684
 9853WAT     H229962   4.163   2.255   1.309  1.6133  0.4557 -0.5477
 9854WAT      O29963   0.234   4.275   5.553  0.0456 -0.4786 -0.4047
 9854WAT     H129964   0.150   4.279   5.508 -0.5970 -0.1913  0.7693
 9854WAT     H229965   0.253   4.366   5.575  0.6441 -0.5504 -0.6086
 9855WAT      O29966   3.980   3.663   2.099 -0.1421  0.1814 -0.1560
 9855WAT     H129967   3.918   3.720   2.145 -0.7541  0.0538 -0.8129
 9855WAT     H229968   3.976   3.691   2.008 -0.4455 -0.9001 -0.4860
 9856WAT      O29969   5.708   1.755   4.233  0.4075  0.1899  0.2322
 9856WAT     H129970   5.614   1.771   4.236  0.4826  0.6548  0.1397
 9856WAT     H229971   5.732   1.740   4.325  0.5155  1.6978  0.4791
 9857WAT      O29972   0.909   4.471   6.107  0.1830  0.5521 -0.2761
 9857WAT     H129973   0.996   4.458   6.069  0.3653 -0.9475  0.5873
 9857WAT     H229974   0.898   4.398   6.167 -2.3157 -0.1515 -1.4892
 9858WAT      O29975   3.676   1.669   0.791 -0.2973 -0.1650  0.3608
 9858WAT     H129976   3.669   1.762   0.773  0.0743 -0.0640  0.7074
 9858WAT     H229977   3.598   1.647   0.841  0.1251  0.1933  1.1991
 9859WAT      O29978   4.717   6.522   4.720  0.1925  0.8194  0.0540
 9859WAT     H129979   4.624   6.528   4.696  0.1168 -0.8132 -0.1578
 9859WAT     H229980   4.760   6.492   4.640  0.8804  1.3557  0.2191
 9860WAT      O29981   3.218   0.286   4.005  0.2939  0.3192  0.2004
 9860WAT     H129982   3.263   0.311   4.086 -0.3448  1.3791  0.2386
 9860WAT     H229983   3.136   0.335   4.007  1.2959  2.3034 -2.2505
 9861WAT      O29984   5.960   4.869   5.358  0.2940 -0.1653 -0.3412
 9861WAT     H129985   5.978   4.812   5.433  2.0341 -0.9468 -1.2682
 9861WAT     H229986   5.887   4.826   5.312 -0.3539 -0.0247  0.5414
 9862WAT      O29987   2.860   0.976   0.316 -0.6443  0.0292  0.4282
 9862WAT     H129988   2.932   1.036   0.337  0.3205  0.1375 -2.7237
 9862WAT     H229989   2.857   0.916   0.391  1.0410  1.5214  1.7960
 9863WAT      O29990   1.881   4.491   0.098 -0.6779  0.5085 -0.1940
 9863WAT     H129991   1.908   4.476   0.189  1.1477  0.9743 -0.6131
 9863WAT     H229992   1.955   4.536   0.059 -0.3483 -1.8790 -2.5583
 9864WAT      O29993   5.626   4.823   3.974  0.5932  0.1137 -0.4913
 9864WAT     H129994   5.641   4.830   4.069 -0.3382 -1.2621 -0.2197
 9864WAT     H229995   5.543   4.868   3.960  0.2955 -0.4354 -0.5120
 9865WAT      O29996   2.082   7.200   2.930  0.0302 -0.2455  0.4353
 9865WAT     H129997   2.092   7.251   3.011 -0.7950  0.3624  0.1604
 9865WAT     H229998   2.047   7.262   2.866  2.2017 -0.2810 -0.8768
 9866WAT      O29999   4.844   5.264   3.649  0.3057 -0.3221 -0.0808
 9866WAT     H130000   4.867   5.173   3.632  0.2430 -0.3547  0.0057
 9866WAT     H230001   4.772   5.259   3.713  0.6791 -0.2034  0.3582
 9867WAT      O30002   6.201   2.674   1.108 -0.0272 -0.7122 -0.5056
 9867WAT     H130003   6.273   2.628   1.150  0.3250  0.9203  0.7806
 9867WAT     H230004   6.122   2.637   1.147  0.1965 -1.1431 -0.4638
 9868WAT      O30005   1.108   5.040   2.083  0.1827 -0.2093  0.0143
 9868WAT     H130006   1.125   5.006   1.995 -0.2242 -1.9317  0.5578
 9868WAT     H230007   1.043   5.109   2.071 -0.1640 -0.7034 -0.9881
 9869WAT      O30008   7.561   4.129   4.948 -0.0554 -0.2345  0.2651
 9869WAT     H130009   7.561   4.212   4.996 -0.2856 -0.6813  1.0397
 9869WAT     H230010   7.521   4.066   5.008 -1.1647 -0.6110 -0.8204
 9870WAT      O30011   0.420   3.422   5.751  0.1541 -0.2737  0.0106
 9870WAT     H130012   0.379   3.372   5.681 -0.7426 -0.6143  0.7703
 9870WAT     H230013   0.500   3.375   5.771  0.0407 -0.5876 -0.2739
 9871WAT      O30014   0.143   6.136   2.309  0.1526  0.9161  0.4150
 9871WAT     H130015   0.221   6.153   2.256  0.0006 -0.4914 -0.3136
 9871WAT     H230016   0.178   6.115   2.396  0.5486  0.9719  0.2723
 9872WAT      O30017   1.465   4.963   2.767 -0.1744  0.1737 -0.0164
 9872WAT     H130018   1.453   5.033   2.830 -0.4970 -0.0983  0.2255
 9872WAT     H230019   1.389   4.968   2.709  0.2183  0.5493 -0.5121
 9873WAT      O30020   0.304   1.944   1.029 -0.1321  0.6568  0.6009
 9873WAT     H130021   0.242   2.012   1.055  0.1877  0.8064  0.9830
 9873WAT     H230022   0.260   1.897   0.958 -0.2800  1.3881  0.1914
 9874WAT      O30023   3.908   2.865   3.895  0.2696  0.0937 -0.0892
 9874WAT     H130024   3.921   2.815   3.815  1.1283 -0.4682  0.3848
 9874WAT     H230025   3.916   2.801   3.966 -0.3175  0.6065  0.4555
 9875WAT      O30026   6.191   5.182   2.775  0.0421  0.8345  0.1328
 9875WAT     H130027   6.245   5.116   2.817  1.1236  0.6722 -1.4478
 9875WAT     H230028   6.167   5.242   2.846  0.7155 -0.1290  1.2018
 9876WAT      O30029   2.860   1.521   2.798 -0.2280  0.0180 -0.0505
 9876WAT     H130030   2.788   1.459   2.806  1.7815 -2.2936  1.5573
 9876WAT     H230031   2.935   1.477   2.838  1.6129  3.1231  0.2825
 9877WAT      O30032   7.412   3.048   5.601 -0.2244  0.4088 -0.0494
 9877WAT     H130033   7.443   2.997   5.676 -1.2246 -0.2626 -0.0813
 9877WAT     H230034   7.328   3.083   5.629 -0.1936  0.8910 -0.5431
 9878WAT      O30035   5.873   3.206   5.486  0.4128  0.0159 -0.1145
 9878WAT     H130036   5.877   3.157   5.568 -0.8737  1.4933  0.8758
 9878WAT     H230037   5.925   3.285   5.503  0.0181  0.4001 -0.6797
 9879WAT      O30038   6.300   4.872   1.856  0.3843  0.3211  0.0477
 9879WAT     H130039   6.229   4.824   1.898  0.4984  1.0511  1.1022
 9879WAT     H230040   6.360   4.894   1.927  0.5882  1.5968 -0.4900
 9880WAT      O30041   4.325   6.392   2.020  0.2735 -0.5525 -0.2043
 9880WAT     H130042   4.292   6.458   2.080 -0.1989 -1.3783  0.4627
 9880WAT     H230043   4.338   6.314   2.074  1.0086 -0.9518 -0.9369
 9881WAT      O30044   0.924   3.412   4.783 -0.2148  0.2324  0.5982
 9881WAT     H130045   0.882   3.498   4.776  0.7583  0.8397  1.8330
 9881WAT     H230046   0.860   3.357   4.829 -1.4753 -0.1964 -1.5338
 9882WAT      O30047   3.236   4.839   0.667  0.1580  0.1450  0.4598
 9882WAT     H130048   3.295   4.803   0.733 -0.8166 -1.2179  0.6187
 9882WAT     H230049   3.166   4.880   0.718  1.0192  1.9585  0.2771
 9883WAT      O30050   0.897   1.516   5.521  0.2147 -0.0648 -0.2653
 9883WAT     H130051   0.894   1.609   5.542  2.9591 -0.4076  2.4735
 9883WAT     H230052   0.864   1.473   5.600  4.0873 -1.3715  0.8850
 9884WAT      O30053   7.309   6.575   6.061  0.1506 -0.3922 -0.1820
 9884WAT     H130054   7.297   6.603   6.152 -0.3603  0.6274 -0.5545
 9884WAT     H230055   7.383   6.515   6.065 -0.5425 -1.2354  1.0797
 9885WAT      O30056   3.789   5.949   4.385 -0.6786 -0.4540 -0.0506
 9885WAT     H130057   3.846   5.909   4.451 -0.7768 -0.8156 -0.1839
 9885WAT     H230058   3.747   6.022   4.431  2.3106  1.9472 -0.7559
 9886WAT      O30059   0.297   0.556   4.237  0.0543 -0.1608  0.0522
 9886WAT     H130060   0.331   0.500   4.168  3.3014 -0.3286  1.5981
 9886WAT     H230061   0.277   0.496   4.309  2.7514  0.4697  1.4164
 9887WAT      O30062   5.873   4.040   5.416 -0.3733 -0.2378 -0.1116
 9887WAT     H130063   5.825   4.086   5.485 -0.6033  1.0963 -1.1215
 9887WAT     H230064   5.923   4.108   5.371 -0.1174 -1.0971 -1.1860
 9888WAT      O30065   2.588   3.399   6.128 -0.1176 -0.5736 -0.0642
 9888WAT     H130066   2.610   3.337   6.197  0.7751 -0.0814  0.1072
 9888WAT     H230067   2.583   3.483   6.172  3.3599  0.2696 -0.9832
 9889WAT      O30068   1.410   5.541   3.914 -0.6283  0.5980 -0.2745
 9889WAT     H130069   1.338   5.559   3.974 -0.0651  1.0819  0.2646
 9889WAT     H230070   1.483   5.514   3.970 -0.5386 -0.4252 -0.8482
 9890WAT      O30071   2.376   4.794   3.744 -0.2632  0.0538 -0.1815
 9890WAT     H130072   2.388   4.791   3.839 -0.3398  0.0652 -0.1712
 9890WAT     H230073   2.282   4.785   3.732 -0.2215 -0.2653 -0.2733
 9891WAT      O30074   6.353   3.383   0.610 -0.2853  1.2345 -0.3669
 9891WAT     H130075   6.277   3.329   0.632  0.2656  0.7102  0.2885
 9891WAT     H230076   6.428   3.336   0.647  0.2352  2.3262  0.0387
 9892WAT      O30077   3.593   6.766   3.515 -0.3590 -0.0992  0.3469
 9892WAT     H130078   3.623   6.814   3.591  1.6246 -1.3511  0.4308
 9892WAT     H230079   3.607   6.826   3.441  0.1049  0.1965  0.6729
 9893WAT      O30080   6.160   0.956   3.660  0.2992 -0.5564 -0.3437
 9893WAT     H130081   6.185   0.888   3.724 -2.1140 -0.3101  0.9674
 9893WAT     H230082   6.165   1.038   3.710 -1.3775 -0.3242 -0.5292
 9894WAT      O30083   6.203   5.277   5.014 -0.0744 -0.4956  0.2290
 9894WAT     H130084   6.293   5.246   5.006  0.6700  1.8226 -1.2529
 9894WAT     H230085   6.161   5.212   5.071  2.4938 -1.6622  0.9653
 9895WAT      O30086   2.687   0.270   3.701 -0.5732  1.6911 -0.9060
 9895WAT     H130087   2.613   0.226   3.660  0.0280  0.3247 -0.5860
 9895WAT     H230088   2.659   0.286   3.791  0.8949 -2.8599  0.6798
 9896WAT      O30089   6.334   4.486   5.479  0.6859 -0.4269  0.2249
 9896WAT     H130090   6.244   4.459   5.460  0.3588 -0.0362  1.1553
 9896WAT     H230091   6.365   4.523   5.396 -0.5211  0.7839  0.2758
 9897WAT      O30092   0.088   3.137   5.038 -0.2863  0.0951 -0.1380
 9897WAT     H130093   0.030   3.074   5.080 -1.1201  0.8945 -0.0648
 9897WAT     H230094   0.040   3.220   5.040  1.3683  1.0799  1.0882
 9898WAT      O30095   3.999   5.544   1.675  0.1240 -0.0816 -0.0014
 9898WAT     H130096   3.931   5.604   1.706  1.7684  2.7465 -1.4550
 9898WAT     H230097   3.995   5.470   1.736 -1.9552  1.5279  2.0071
 9899WAT      O30098   3.304   6.580   5.914  0.6132 -0.1708  0.0343
 9899WAT     H130099   3.289   6.646   5.982 -3.3808 -1.1413  0.3404
 9899WAT     H230100   3.304   6.497   5.962 -0.7975 -0.7555 -0.9193
 9900WAT      O30101   0.263   3.544   3.443  0.1526  0.2862 -0.4062
 9900WAT     H130102   0.281   3.609   3.511  2.4713 -2.2019  1.5824
 9900WAT     H230103   0.199   3.485   3.482  0.1917 -0.2111 -1.0742
 9901WAT      O30104   1.396   1.521   5.294 -0.1235  0.7055  0.1739
 9901WAT     H130105   1.325   1.585   5.295 -0.9321 -0.1847  0.5751
 9901WAT     H230106   1.353   1.437   5.283  0.8781  0.1547  0.3291
 9902WAT      O30107   5.883   7.176   1.458  0.1451 -0.2051  0.4391
 9902WAT     H130108   5.912   7.195   1.547  0.0888  0.1595  0.3796
 9902WAT     H230109   5.963   7.154   1.410  0.1910 -0.2641  0.5417
 9903WAT      O30110   7.483   3.169   1.486 -0.1383 -0.7393  0.3685
 9903WAT     H130111   7.424   3.137   1.418 -0.6206  0.5304  0.1664
 9903WAT     H230112   7.444   3.140   1.568  0.4226 -2.2467  0.1328
 9904WAT      O30113   1.432   6.153   5.078  0.0039 -0.3120  0.1181
 9904WAT     H130114   1.451   6.156   4.984 -1.3844  1.5595 -0.1560
 9904WAT     H230115   1.364   6.086   5.086 -1.4216  1.0020 -0.5622
 9905WAT      O30116   2.116   0.015   2.773  0.2317 -0.1062  0.7714
 9905WAT     H130117   2.194   0.060   2.742  0.2384  0.3273  1.3917
 9905WAT     H230118   2.128   0.009   2.868 -0.7457  0.4820  0.9471
 9906WAT      O30119   0.970   3.383   5.195  0.0180  0.1477 -0.4516
 9906WAT     H130120   0.984   3.477   5.204  1.0595 -0.0938  0.5934
 9906WAT     H230121   0.999   3.345   5.278 -3.1512 -0.8326  0.3339
 9907WAT      O30122   7.255   0.179   1.430  0.4535 -0.1471  0.2759
 9907WAT     H130123   7.265   0.096   1.384 -0.1419  0.0086 -0.1470
 9907WAT     H230124   7.161   0.185   1.449  0.6499 -0.0978  1.3052
 9908WAT      O30125   4.112   4.473   2.096 -0.0095 -0.2871 -0.6089
 9908WAT     H130126   4.066   4.391   2.079 -1.5311  0.7762 -1.8797
 9908WAT     H230127   4.065   4.512   2.169  1.1546 -0.8244  0.4694
 9909WAT      O30128   6.668   2.287   4.850  0.1063 -0.1371 -0.0000
 9909WAT     H130129   6.591   2.253   4.804 -0.1656 -0.8193  0.9222
 9909WAT     H230130   6.657   2.257   4.940  0.4887  1.3771  0.5837
 9910WAT      O30131   3.912   6.163   5.958  0.2544  1.0201  0.2143
 9910WAT     H130132   3.919   6.087   6.016 -1.2598  1.3827  0.9045
 9910WAT     H230133   3.887   6.235   6.016  0.5392  1.7967 -0.6137
 9911WAT      O30134   6.939   3.791   0.598  0.2879 -0.5513  0.0397
 9911WAT     H130135   6.908   3.871   0.640 -1.8759 -1.6380  0.6587
 9911WAT     H230136   6.994   3.748   0.664  0.5666 -0.1118  0.0969
 9912WAT      O30137   7.184   6.723   3.410  0.2402  0.2346  0.3087
 9912WAT     H130138   7.120   6.660   3.444  1.1183 -0.5285  0.5655
 9912WAT     H230139   7.178   6.798   3.469 -1.5645  0.8777 -0.5997
 9913WAT      O30140   0.009   4.600   5.762 -0.5928  0.3161  0.5397
 9913WAT     H130141   0.027   4.684   5.804  0.3966 -0.2380  1.2426
 9913WAT     H230142   0.007   4.537   5.833  0.1882 -0.4938 -0.1275
 9914WAT      O30143   4.055   2.742   4.227 -0.1777 -0.0274 -0.3253
 9914WAT     H130144   3.994   2.706   4.164 -1.8875  2.5336 -0.2779
 9914WAT     H230145   4.037   2.695   4.308 -0.9137 -0.4506 -0.7259
 9915WAT      O30146   6.786   0.634   1.419 -0.6487 -0.8184 -0.1267
 9915WAT     H130147   6.859   0.682   1.460 -1.2663  1.8601 -1.9177
 9915WAT     H230148   6.712   0.650   1.477 -1.4173  2.6043 -1.7613
 9916WAT      O30149   6.174   3.253   4.090 -0.4192 -0.1776 -0.3776
 9916WAT     H130150   6.123   3.325   4.054 -0.8075  0.0018  0.5227
 9916WAT     H230151   6.142   3.242   4.179 -0.8718 -1.9274 -0.7117
 9917WAT      O30152   5.333   3.734   3.774 -0.6739 -0.3262 -0.2105
 9917WAT     H130153   5.344   3.827   3.797  0.5603  0.0935 -2.2850
 9917WAT     H230154   5.416   3.693   3.799 -0.5442 -0.5068 -0.9286
 9918WAT      O30155   2.960   0.004   1.979 -0.5429  0.3889  0.1203
 9918WAT     H130156   3.022  -0.030   2.043 -1.8577 -3.5454 -0.3944
 9918WAT     H230157   2.897   0.054   2.031 -1.1619 -2.0772  1.9637
 9919WAT      O30158   0.349   5.345   0.843 -0.1014  0.7198  0.7156
 9919WAT     H130159   0.306   5.264   0.815  1.2307  0.5742 -1.1481
 9919WAT     H230160   0.328   5.353   0.936 -1.5851 -0.9071  0.5737
 9920WAT      O30161   5.214   2.641   2.102  0.3863  0.2499  0.2565
 9920WAT     H130162   5.287   2.579   2.097 -1.1992 -1.6933 -0.3863
 9920WAT     H230163   5.207   2.662   2.195 -0.3947 -2.3782  0.8680
 9921WAT      O30164   7.295   6.348   1.925  0.4079  0.3678  0.0806
 9921WAT     H130165   7.284   6.277   1.863  0.4688 -0.3048  0.8212
 9921WAT     H230166   7.356   6.408   1.883  1.1061 -0.4910 -0.1615
 9922WAT      O30167   6.964   0.149   2.417 -0.0867 -0.0203 -0.2657
 9922WAT     H130168   7.017   0.225   2.395 -0.3523  0.1927 -0.1638
 9922WAT     H230169   6.890   0.183   2.467 -0.4942 -0.2722 -0.6778
 9923WAT      O30170   0.622   0.531   0.570 -0.0236 -0.1754 -0.0071
 9923WAT     H130171   0.591   0.444   0.547  0.4228 -0.4047  0.2502
 9923WAT     H230172   0.597   0.541   0.662  0.8352 -0.4448  0.2638
 9924WAT      O30173   5.249   6.258   4.577 -0.6831  0.6177  0.2658
 9924WAT     H130174   5.171   6.203   4.580 -0.8274  0.7739 -0.4156
 9924WAT     H230175   5.321   6.197   4.563 -0.7744  0.5412  0.1214
 9925WAT      O30176   0.910   5.262   2.153 -0.1122  0.3957  0.2282
 9925WAT     H130177   0.918   5.356   2.171 -0.2843 -0.0133  2.6852
 9925WAT     H230178   0.853   5.229   2.222 -1.6181 -1.2519 -1.6695
 9926WAT      O30179   5.523   4.125   3.547 -0.2290  0.0467  0.8516
 9926WAT     H130180   5.541   4.113   3.454 -1.8302 -0.5875  0.5918
 9926WAT     H230181   5.556   4.213   3.566 -2.2215  1.2922 -0.9711
 9927WAT      O30182   7.458   6.152   4.247 -0.4163  0.2907 -0.7503
 9927WAT     H130183   7.365   6.176   4.250 -0.4401  0.3574 -1.6804
 9927WAT     H230184   7.504   6.236   4.250 -0.2896  0.1901  1.8321
 9928WAT      O30185   5.273   2.221   0.041 -0.7369  0.1459  0.1772
 9928WAT     H130186   5.302   2.307   0.071 -1.0859  0.9890 -1.7992
 9928WAT     H230187   5.353   2.171   0.030 -0.4014  0.7732 -0.2708
 9929WAT      O30188   0.757   4.021   0.544 -0.0957 -0.0340 -0.4680
 9929WAT     H130189   0.674   4.004   0.589  0.0075 -1.4084 -0.7503
 9929WAT     H230190   0.745   4.107   0.503 -0.7274  0.5701  0.9199
 9930WAT      O30191   6.959   4.649   0.593 -0.4293  0.0722 -0.4742
 9930WAT     H130192   7.017   4.614   0.661  1.8153  0.2839 -2.1548
 9930WAT     H230193   6.916   4.723   0.634  0.7804  0.1257  0.7805
 9931WAT      O30194   0.326   6.025   0.267  0.1520 -0.2473 -0.5609
 9931WAT     H130195   0.247   5.980   0.297  0.5588  0.3730  1.6528
 9931WAT     H230196   0.334   6.100   0.327  1.2267  0.9506 -2.1364
 9932WAT      O30197   0.147   5.410   1.622  0.2180 -0.2280  0.4729
 9932WAT     H130198   0.190   5.325   1.622  0.1953 -0.2667 -0.7336
 9932WAT     H230199   0.075   5.402   1.684  0.5175 -0.9265  0.7311
 9933WAT      O30200   5.011   2.058   2.605 -0.7363  0.1696  0.3867
 9933WAT     H130201   4.947   2.067   2.535 -0.7886  0.1969  0.4375
 9933WAT     H230202   5.014   2.145   2.645  2.2778  1.4418 -2.1576
 9934WAT      O30203   4.576   6.198   1.035  0.2862  0.0716  0.2808
 9934WAT     H130204   4.610   6.148   1.110  1.0525  1.3233  0.8023
 9934WAT     H230205   4.482   6.206   1.053  0.4210  0.1580  0.9840
 9935WAT      O30206   1.100   6.171   3.817 -0.0690 -0.4102  0.6456
 9935WAT     H130207   1.151   6.183   3.897  0.5668  0.6150  0.1113
 9935WAT     H230208   1.019   6.129   3.846  0.8942 -1.7332  1.5691
 9936WAT      O30209   4.226   6.408   0.045 -0.0986  0.1751  0.1043
 9936WAT     H130210   4.192   6.480  -0.007 -0.0170  0.2385  0.1389
 9936WAT     H230211   4.149   6.354   0.065  0.2310 -1.5605 -2.6923
 9937WAT      O30212   1.745   4.730   5.491  0.2251 -0.3655  0.1230
 9937WAT     H130213   1.808   4.672   5.532 -0.1398 -0.4490  0.5708
 9937WAT     H230214   1.661   4.683   5.497 -0.2945  0.6939  1.5464
 9938WAT      O30215   6.645   0.891   5.971  0.0899  0.3684 -0.5503
 9938WAT     H130216   6.704   0.962   5.997  0.9182 -0.2903 -0.5591
 9938WAT     H230217   6.704   0.822   5.940 -0.2937 -2.1870  3.6795
 9939WAT      O30218   0.083   6.067   1.111  0.6338  0.6490 -0.0397
 9939WAT     H130219   0.148   6.001   1.089 -0.7352 -0.4648 -0.9147
 9939WAT     H230220   0.027   6.073   1.034 -1.0823  0.5943  1.1327
 9940WAT      O30221   4.584   4.458   1.389  0.4694 -0.2462 -0.3406
 9940WAT     H130222   4.600   4.536   1.443 -0.7330 -1.5152  2.0050
 9940WAT     H230223   4.647   4.393   1.421  0.7921 -0.5542 -1.5742
 9941WAT      O30224   6.491   5.634   2.028 -0.0930  0.0412  0.4808
 9941WAT     H130225   6.411   5.582   2.020  1.1530 -1.7283 -1.6054
 9941WAT     H230226   6.534   5.601   2.107 -1.6544  1.4676  1.9978
 9942WAT      O30227   5.515   4.708   4.213 -0.3965 -0.1116 -0.0300
 9942WAT     H130228   5.574   4.780   4.236  0.7953 -0.7935 -0.8334
 9942WAT     H230229   5.533   4.641   4.279 -0.1001 -0.4001 -0.3966
 9943WAT      O30230   3.783   0.647   0.113  0.2432  0.1626 -0.0576
 9943WAT     H130231   3.797   0.571   0.057 -1.0925 -0.7037  0.7292
 9943WAT     H230232   3.853   0.642   0.178  2.4511  1.7556 -2.1413
 9944WAT      O30233   0.393   3.894   2.002  0.0443  0.7134 -0.3177
 9944WAT     H130234   0.441   3.948   2.065  1.5456  0.3853 -1.1466
 9944WAT     H230235   0.461   3.850   1.951 -1.1494 -0.0946 -1.2585
 9945WAT      O30236   4.472   2.113   3.302 -0.0265 -0.3458  0.2231
 9945WAT     H130237   4.535   2.103   3.231  1.0512 -1.2940  1.2744
 9945WAT     H230238   4.388   2.126   3.258  0.5860 -1.0649 -1.2196
 9946WAT      O30239   5.950   4.316   4.054  0.1150 -0.2549 -0.1666
 9946WAT     H130240   5.931   4.226   4.081  0.6936  0.2773  2.1978
 9946WAT     H230241   6.045   4.324   4.062  0.1867  0.3022 -1.3460
 9947WAT      O30242   7.621   7.033   2.363  0.8366  0.1053  0.0115
 9947WAT     H130243   7.559   7.105   2.364  0.4576 -0.2139  1.3561
 9947WAT     H230244   7.702   7.070   2.398  0.9904  0.1689 -0.4086
 9948WAT      O30245   6.487   0.664   5.020  0.4741 -0.8121  0.9627
 9948WAT     H130246   6.403   0.672   5.064  0.2882 -0.8647  0.6235
 9948WAT     H230247   6.511   0.572   5.029 -0.5377 -1.3026 -0.7692
 9949WAT      O30248   3.643   6.774   4.180  0.0837  0.3774  0.5628
 9949WAT     H130249   3.682   6.691   4.208 -0.8000 -0.4582 -0.5397
 9949WAT     H230250   3.715   6.821   4.137 -0.0196 -1.1191 -1.4021
 9950WAT      O30251   4.002   4.571   1.208  0.1240 -0.1765 -0.3107
 9950WAT     H130252   3.932   4.584   1.272  0.0423 -0.2593 -0.3821
 9950WAT     H230253   4.068   4.519   1.254 -0.1194 -0.5900 -0.4218
 9951WAT      O30254   6.818   0.047   4.378 -0.0971  0.3476 -0.2104
 9951WAT     H130255   6.762   0.073   4.451  0.6706  0.0278  0.4979
 9951WAT     H230256   6.870   0.125   4.359 -1.3727  0.9466 -1.4662
 9952WAT      O30257   3.023   6.955   4.941 -0.9166  0.4135  0.8803
 9952WAT     H130258   3.118   6.952   4.951 -0.7594 -1.7659 -0.4207
 9952WAT     H230259   2.989   6.928   5.026 -0.3736  1.0180  1.2979
 9953WAT      O30260   4.235   5.079   3.665 -0.0931 -0.4004  0.6838
 9953WAT     H130261   4.240   5.017   3.738 -0.8110  1.2365  2.1802
 9953WAT     H230262   4.325   5.091   3.637  0.0971 -1.7917  0.6073
 9954WAT      O30263   7.231   5.099   5.842  0.4139 -0.0878  0.0933
 9954WAT     H130264   7.142   5.070   5.862  0.2031 -0.0410 -0.7261
 9954WAT     H230265   7.264   5.134   5.924  0.0493 -1.0482  0.6717
 9955WAT      O30266   5.117   6.705   2.993  0.2032  0.4577  0.5089
 9955WAT     H130267   5.168   6.654   3.056  1.8139  1.5769  0.1718
 9955WAT     H230268   5.040   6.733   3.042  1.4235  1.3148  2.0386
 9956WAT      O30269   0.640   1.333   2.117 -0.7300 -0.1071 -0.1020
 9956WAT     H130270   0.554   1.308   2.084 -1.5019  1.3762  0.6547
 9956WAT     H230271   0.624   1.356   2.209  0.0914  1.9155 -0.4146
 9957WAT      O30272   1.834   6.022   3.979 -0.6746 -0.5637  0.5404
 9957WAT     H130273   1.876   6.043   4.063  0.2537 -0.4440  0.0576
 9957WAT     H230274   1.774   6.096   3.963  2.1681  1.6280 -0.8898
 9958WAT      O30275   2.764   4.149   0.093 -0.1690 -0.4269 -0.0208
 9958WAT     H130276   2.854   4.173   0.115 -0.7428  2.0229 -0.0299
 9958WAT     H230277   2.720   4.140   0.178 -0.8988  2.8745  0.0977
 9959WAT      O30278   3.158   6.417   3.936  0.1434  0.2043  0.1545
 9959WAT     H130279   3.083   6.413   3.995  1.1430  0.5174  1.5025
 9959WAT     H230280   3.231   6.382   3.987  0.9562  0.0312 -1.0745
 9960WAT      O30281   0.232   4.724   3.635  0.5687  0.7238  0.1741
 9960WAT     H130282   0.162   4.693   3.692 -0.0727  2.3474  0.3223
 9960WAT     H230283   0.189   4.742   3.551  1.6824 -2.7130 -1.3330
 9961WAT      O30284   3.121   2.737   3.963 -0.1258 -0.1755  0.2746
 9961WAT     H130285   3.085   2.673   4.025  3.1152  0.8741  3.5940
 9961WAT     H230286   3.053   2.804   3.956 -1.5349 -1.4713  0.7600
 9962WAT      O30287   4.031   5.220   6.073  0.3580 -0.0618 -0.2026
 9962WAT     H130288   4.033   5.291   6.137 -2.3529  0.9362 -1.1099
 9962WAT     H230289   4.102   5.241   6.012  2.2267 -0.4083  1.7200
 9963WAT      O30290   3.320   6.009   2.452  0.0725  0.2565  0.0335
 9963WAT     H130291   3.350   5.922   2.428  0.2922  0.1820  0.5565
 9963WAT     H230292   3.389   6.068   2.424  0.5471  0.1240  0.8779
 9964WAT      O30293   7.051   5.304   1.017 -0.1124  0.7095 -0.0265
 9964WAT     H130294   7.005   5.242   1.072 -1.1887  0.9160 -0.6570
 9964WAT     H230295   7.123   5.336   1.071  0.2348 -0.7727  0.4421
 9965WAT      O30296   5.101   4.842   4.541 -0.5277 -0.2731 -0.2626
 9965WAT     H130297   5.171   4.861   4.479 -0.9604  0.1958 -0.6163
 9965WAT     H230298   5.028   4.898   4.513 -0.9140 -0.4684  0.3313
 9966WAT      O30299   0.960   2.361   3.935 -0.4669  0.1607 -0.6870
 9966WAT     H130300   1.006   2.279   3.918  2.7484  1.0799  2.4616
 9966WAT     H230301   0.874   2.333   3.969 -0.7024 -1.7351 -2.6241
 9967WAT      O30302   3.886   5.750   3.772  0.1091 -0.2539 -0.6470
 9967WAT     H130303   3.868   5.721   3.862  0.1084 -1.2316 -0.9523
 9967WAT     H230304   3.845   5.836   3.767  0.6894  0.1119  0.5000
 9968WAT      O30305   3.047   0.108   1.727 -0.1319 -0.8910 -0.1817
 9968WAT     H130306   3.016   0.027   1.686 -0.6331 -0.4134 -0.7647
 9968WAT     H230307   3.034   0.094   1.821 -6.4076  0.8777 -0.3547
 9969WAT      O30308   6.366   5.071   3.229 -0.3541 -0.7962 -0.1852
 9969WAT     H130309   6.274   5.082   3.250 -0.3349 -1.9751  0.5989
 9969WAT     H230310   6.410   5.067   3.314  0.3618 -0.7051 -0.5450
 9970WAT      O30311   4.030   3.188   4.383  0.0995 -0.4117  0.2145
 9970WAT     H130312   4.019   3.114   4.323  0.5157 -0.2983 -0.0097
 9970WAT     H230313   4.112   3.229   4.355 -0.3280  0.3702  0.0817
 9971WAT      O30314   5.688   5.827   3.877  0.3853  0.1837  0.8585
 9971WAT     H130315   5.614   5.850   3.933  0.8353 -0.1746  1.6220
 9971WAT     H230316   5.681   5.733   3.866  1.1661  0.0228  1.6028
 9972WAT      O30317   5.063   6.649   5.261  0.1385 -0.2342 -0.2458
 9972WAT     H130318   4.987   6.706   5.249  1.2342  1.9335  2.2314
 9972WAT     H230319   5.028   6.571   5.305 -0.8068  0.2134 -0.1825
 9973WAT      O30320   5.980   2.167   3.583  0.1844  0.0616 -0.1057
 9973WAT     H130321   6.043   2.223   3.628  1.2806 -3.1602  2.7410
 9973WAT     H230322   5.907   2.159   3.644 -0.0800 -1.3303 -0.5720
 9974WAT      O30323   2.512   2.639   5.575 -0.8803  0.4848  0.2672
 9974WAT     H130324   2.454   2.567   5.598 -0.6894  0.3692  0.3878
 9974WAT     H230325   2.593   2.597   5.547 -1.0190  0.6338 -0.3565
 9975WAT      O30326   7.198   0.929   0.650  0.2261 -0.9658  0.5623
 9975WAT     H130327   7.289   0.903   0.668 -0.6385 -2.8559  2.5197
 9975WAT     H230328   7.166   0.863   0.589  0.1113 -0.3251 -0.0885
 9976WAT      O30329   1.302   6.514   2.221 -0.1347  0.0942  0.0906
 9976WAT     H130330   1.301   6.437   2.276  1.2297 -0.3087 -0.3965
 9976WAT     H230331   1.389   6.513   2.180 -0.0349  1.9497  0.1745
 9977WAT      O30332   0.591   5.425   4.284 -0.9433 -0.2182 -1.0141
 9977WAT     H130333   0.649   5.452   4.355 -1.0604  0.5390 -1.1933
 9977WAT     H230334   0.557   5.340   4.311  1.0307 -1.1628 -1.3827
 9978WAT      O30335   2.683   1.029   0.093  0.0199 -0.1230 -0.1637
 9978WAT     H130336   2.657   1.120   0.082  0.4828 -0.0887 -1.0522
 9978WAT     H230337   2.760   1.033   0.151  1.3096  0.2516 -1.8397
 9979WAT      O30338   6.274   4.854   4.297  0.9342  0.4857 -0.0681
 9979WAT     H130339   6.365   4.831   4.313  0.6552  1.0508  2.9075
 9979WAT     H230340   6.262   4.936   4.344 -1.0953  0.4861 -0.5032
 9980WAT      O30341   0.591   4.168   3.247  0.3170 -0.2550 -0.2300
 9980WAT     H130342   0.592   4.188   3.341 -1.2906  0.1638 -0.2697
 9980WAT     H230343   0.640   4.086   3.239 -0.3294 -0.7978  1.1120
 9981WAT      O30344   3.952   4.347   1.501  0.2584  0.2157  0.1150
 9981WAT     H130345   3.856   4.350   1.507 -0.3110 -5.4492 -0.5627
 9981WAT     H230346   3.982   4.393   1.579 -3.0907  0.6873  1.3116
 9982WAT      O30347   0.303   5.575   1.886 -0.5685  0.4914 -0.5776
 9982WAT     H130348   0.331   5.617   1.967 -0.5422  0.0816 -0.3756
 9982WAT     H230349   0.253   5.643   1.841 -0.2956  0.8293 -0.3775
 9983WAT      O30350   1.585   1.884   0.106 -0.2656  0.4127  0.1636
 9983WAT     H130351   1.615   1.845   0.024 -0.9564 -0.7754  0.4525
 9983WAT     H230352   1.490   1.888   0.097 -0.4530 -0.8052  1.3457
 9984WAT      O30353   1.371   5.860   2.784 -0.4110  0.1846 -0.6030
 9984WAT     H130354   1.279   5.834   2.786 -0.0261 -1.2220  0.5619
 9984WAT     H230355   1.381   5.921   2.856 -0.3820  0.1727 -0.5968
 9985WAT      O30356   6.686   2.114   5.089 -0.0003  0.1597  0.1792
 9985WAT     H130357   6.661   2.058   5.163 -3.9942 -0.5277 -1.4658
 9985WAT     H230358   6.706   2.052   5.019 -2.8137  0.6246 -1.1610
 9986WAT      O30359   5.937   5.814   5.428  0.2937  0.1452 -0.2301
 9986WAT     H130360   5.975   5.734   5.464  0.9303  0.8557  0.7463
 9986WAT     H230361   5.843   5.801   5.435  0.3734  0.3915  2.1376
 9987WAT      O30362   4.750   6.845   0.474 -0.2607  0.5110 -0.5275
 9987WAT     H130363   4.769   6.866   0.382 -1.1986 -1.0403 -1.1115
 9987WAT     H230364   4.717   6.927   0.511  1.0559  1.4257 -1.2802
 9988WAT      O30365   0.145   0.828   0.555  0.5071 -0.2133  0.4575
 9988WAT     H130366   0.096   0.829   0.637  1.1013 -1.2670  0.8383
 9988WAT     H230367   0.177   0.739   0.547 -0.4005 -0.4143 -1.4403
 9989WAT      O30368   3.612   5.970   3.655 -0.0974  0.2470  0.2263
 9989WAT     H130369   3.542   6.035   3.642  1.9369  2.5778  0.1567
 9989WAT     H230370   3.651   5.993   3.739 -0.7458 -2.4526  1.3765
 9990WAT      O30371   1.463   6.848   3.026 -0.6015 -0.2651  0.1143
 9990WAT     H130372   1.432   6.938   3.025  0.0858 -0.0315  0.0903
 9990WAT     H230373   1.513   6.840   3.107 -1.6403 -0.9604  0.7157
 9991WAT      O30374   1.881   4.161   6.030 -0.3567  0.6395 -0.5314
 9991WAT     H130375   1.901   4.150   6.123 -0.8137  0.5778 -0.4410
 9991WAT     H230376   1.955   4.211   5.996 -0.3182  0.8942 -0.0815
 9992WAT      O30377   2.812   0.837   1.820 -0.0888 -0.1677  0.0365
 9992WAT     H130378   2.806   0.742   1.814 -0.0819 -0.2523  1.1440
 9992WAT     H230379   2.854   0.853   1.905  2.4420  0.7638 -1.3148
 9993WAT      O30380   5.081   4.809   1.896  0.1120  0.2343 -0.1962
 9993WAT     H130381   5.128   4.883   1.935  1.8684 -0.4190 -0.9849
 9993WAT     H230382   5.131   4.732   1.922 -1.0884 -0.6034 -0.2737
 9994WAT      O30383   5.480   4.136   2.987  0.0497  0.3207  0.5304
 9994WAT     H130384   5.506   4.214   2.939 -1.4983 -0.3309 -1.5497
 9994WAT     H230385   5.399   4.161   3.033 -0.2544  0.0662  0.1457
 9995WAT      O30386   0.005   0.502   0.314 -0.5246  0.6468 -0.4285
 9995WAT     H130387  -0.042   0.429   0.273 -1.7089  1.7781 -1.1713
 9995WAT     H230388   0.078   0.520   0.255 -0.3490  0.2037 -0.3496
 9996WAT      O30389   4.888   4.352   5.641  0.0343  0.8496 -0.2926
 9996WAT     H130390   4.900   4.439   5.603 -2.0820  2.0324  1.5025
 9996WAT     H230391   4.793   4.341   5.646  0.2333 -1.7485 -0.7617
 9997WAT      O30392   5.698   0.209   5.929  0.5417 -0.3524  0.7014
 9997WAT     H130393   5.668   0.120   5.945  0.2823 -0.5013 -0.5214
 9997WAT     H230394   5.711   0.246   6.017  2.3151 -2.1105  1.2548
 9998WAT      O30395   2.741   0.764   2.434  0.5133 -0.1898 -0.4640
 9998WAT     H130396   2.783   0.703   2.494  1.8590  0.1815 -0.9916
 9998WAT     H230397   2.753   0.725   2.347  0.6918  0.4196 -0.7251
 9999WAT      O30398   6.652   1.251   5.644 -0.3928 -0.4260  0.0931
 9999WAT     H130399   6.648   1.263   5.739 -2.3860 -1.0727  0.1331
 9999WAT     H230400   6.718   1.183   5.631  0.5331  0.2839  0.9221
10000WAT      O30401   2.021   2.636   4.166  0.0591 -0.3556 -1.1468
10000WAT     H130402   2.081   2.564   4.145 -1.1802 -1.6475 -0.4583
10000WAT     H230403   2.019   2.638   4.261  1.0133  1.4621 -1.1189
10001WAT      O30404   7.121   2.273   1.031 -0.1268 -0.2175  0.0880
10001WAT     H130405   7.070   2.339   0.984  1.5666  0.2451 -1.1689
10001WAT     H230406   7.056   2.227   1.084 -1.6915  0.9982 -0.6784
10002WAT      O30407   0.437   1.864   0.325  0.5769 -0.2760  0.3608
10002WAT     H130408   0.405   1.903   0.244  0.8047 -1.2524 -0.2221
10002WAT     H230409   0.528   1.892   0.332  0.4493  0.1121  0.4785
10003WAT      O30410   1.266   1.142   5.592  0.5232 -0.4685  0.1447
10003WAT     H130411   1.226   1.228   5.588 -0.9511 -1.1357  0.0790
10003WAT     H230412   1.357   1.156   5.565  0.3232  1.0616  0.2156
10004WAT      O30413   7.472   6.341   2.924 -0.4715 -0.2600  0.1447
10004WAT     H130414   7.410   6.308   2.989  0.0127 -2.3844 -0.3982
10004WAT     H230415   7.448   6.433   2.912 -1.7751 -0.3242  1.9026
10005WAT      O30416   3.625   3.114   1.051 -0.8782  0.0972 -0.1779
10005WAT     H130417   3.540   3.076   1.073 -0.8521  0.1983  0.1051
10005WAT     H230418   3.625   3.200   1.093 -0.5791  0.0400 -0.0522
10006WAT      O30419   1.556   1.460   1.509 -0.1059 -0.5483  0.1441
10006WAT     H130420   1.467   1.451   1.544 -0.5769 -0.8985 -1.1125
10006WAT     H230421   1.591   1.371   1.511  1.2468 -0.0788  3.1506
10007WAT      O30422   1.845   6.494   5.785 -0.2990 -0.2687  1.1434
10007WAT     H130423   1.821   6.575   5.830  0.6717 -0.3948  1.9378
10007WAT     H230424   1.929   6.469   5.824  1.1159  0.1262 -1.4686
10008WAT      O30425   0.944   2.289   5.340 -0.6592 -0.5988  0.0727
10008WAT     H130426   0.852   2.273   5.361 -0.4027 -0.8860  1.0556
10008WAT     H230427   0.966   2.368   5.390  0.1663 -1.7057  1.5597
10009WAT      O30428   2.329   1.694   4.751  0.1328  0.4373  0.1987
10009WAT     H130429   2.410   1.746   4.747 -0.4663  1.3320 -0.9895
10009WAT     H230430   2.321   1.657   4.663  0.1230 -1.0508  0.7994
10010WAT      O30431   6.912   3.215   1.563 -0.9071 -0.0412  0.0863
10010WAT     H130432   6.849   3.174   1.623 -1.6704  0.9276 -0.0167
10010WAT     H230433   6.898   3.170   1.479 -1.2976  0.0027  0.1260
10011WAT      O30434   4.289   1.422   5.780  0.0632  0.1598  0.0272
10011WAT     H130435   4.204   1.381   5.768 -0.3601  0.9449  0.3054
10011WAT     H230436   4.347   1.377   5.719 -0.3975 -0.8249  0.2995
10012WAT      O30437   5.665   4.915   5.040  0.0171  0.0529 -0.2016
10012WAT     H130438   5.726   4.918   5.114 -0.3292  0.7023  0.0694
10012WAT     H230439   5.699   4.846   4.984  0.9389  0.3273 -0.0020
10013WAT      O30440   6.911   0.065   1.269  0.2691  0.2408  0.1491
10013WAT     H130441   6.970  -0.005   1.242  0.7163  0.5990  0.1691
10013WAT     H230442   6.920   0.068   1.365 -0.2475 -0.1029  0.2134
10014WAT      O30443   4.723   6.202   4.459 -0.1536  0.3116  0.1698
10014WAT     H130444   4.628   6.191   4.455 -0.2222 -0.0357  1.8959
10014WAT     H230445   4.736   6.292   4.487 -0.0967 -0.3302  2.4172
10015WAT      O30446   6.479   0.467   3.761  0.0224 -0.1930 -0.0147
10015WAT     H130447   6.437   0.488   3.678  0.5379 -1.2194 -0.5522
10015WAT     H230448   6.537   0.541   3.778  1.9938 -1.1835 -1.9899
10016WAT      O30449   0.000   1.246   1.270 -0.4723  0.9143  0.2863
10016WAT     H130450   0.036   1.166   1.307 -1.4479  0.6031  0.6114
10016WAT     H230451   0.026   1.315   1.331  1.0962  0.9969 -0.4463
10017WAT      O30452   1.718   2.275   5.551  0.4031  0.1437  0.1680
10017WAT     H130453   1.657   2.202   5.557  0.5422  0.0630  0.6768
10017WAT     H230454   1.783   2.257   5.619  0.0108  1.1396  0.8169
10018WAT      O30455   5.494   3.066   3.908 -0.0459 -1.0748 -0.4380
10018WAT     H130456   5.401   3.045   3.921  0.1245 -2.3737 -1.1787
10018WAT     H230457   5.537   3.031   3.986 -0.2259  0.0835  0.2098
10019WAT      O30458   7.650   2.077   5.343  0.4158  0.1938  0.3521
10019WAT     H130459   7.715   2.147   5.353 -0.1523  0.5609  1.6378
10019WAT     H230460   7.622   2.057   5.432 -0.1219 -1.0349 -0.0699
10020WAT      O30461   2.167   3.297   0.253 -0.0847 -0.9044 -0.0707
10020WAT     H130462   2.194   3.219   0.301 -0.5893 -1.3628 -0.5191
10020WAT     H230463   2.077   3.312   0.280 -0.5885 -1.5311 -1.3010
10021WAT      O30464   5.274   0.312   5.058 -0.0957  0.3793  0.6753
10021WAT     H130465   5.269   0.354   4.972 -0.7498  1.3480  1.1768
10021WAT     H230466   5.295   0.383   5.119 -1.8559  0.1269  1.6279
10022WAT      O30467   0.802   6.003   0.010  0.1807 -0.4542 -0.6144
10022WAT     H130468   0.791   6.068   0.079  1.8978 -0.4636 -0.2817
10022WAT     H230469   0.893   5.975   0.017  0.3699 -0.5841 -2.7985
10023WAT      O30470   0.115   5.397   4.592 -0.3435 -0.3777  0.6352
10023WAT     H130471   0.080   5.315   4.557  0.2055 -0.6445  0.7118
10023WAT     H230472   0.210   5.387   4.589 -0.2507 -0.7521  3.0033
10024WAT      O30473   4.896   3.711   2.299  0.6116  0.5246  0.7242
10024WAT     H130474   4.988   3.714   2.272  0.5663 -0.7317  0.3586
10024WAT     H230475   4.884   3.790   2.352  0.8260  2.9642 -2.5100
10025WAT      O30476   6.378   2.238   2.343  0.4346  0.4369 -0.2437
10025WAT     H130477   6.362   2.220   2.436 -1.4540 -0.2013 -0.6400
10025WAT     H230478   6.470   2.217   2.329  0.2422 -1.4346  1.0437
10026WAT      O30479   6.219   1.540   4.277  0.4431 -0.0836 -0.0609
10026WAT     H130480   6.214   1.603   4.349 -0.2369  0.0757 -0.2415
10026WAT     H230481   6.129   1.532   4.246  0.5992 -0.7781 -0.3571
10027WAT      O30482   0.183   6.706   3.849  0.3418  0.1038 -0.0777
10027WAT     H130483   0.235   6.675   3.922  0.2175 -2.2520 -0.9151
10027WAT     H230484   0.221   6.663   3.772 -0.2410  1.6206 -1.2684
10028WAT      O30485   4.482   0.385   3.289  0.0369  0.0397 -0.4994
10028WAT     H130486   4.544   0.344   3.349 -1.8379 -0.3587  1.2982
10028WAT     H230487   4.400   0.337   3.304 -1.5248  2.5757 -0.3882
10029WAT      O30488   0.817   6.798   4.061  0.1721  0.0113 -0.7020
10029WAT     H130489   0.864   6.716   4.078  0.2645  0.2463  0.2233
10029WAT     H230490   0.827   6.848   4.141 -1.0877  0.3490 -0.7349
10030WAT      O30491   7.348   1.452   6.190  0.6477 -0.2719  0.5830
10030WAT     H130492   7.283   1.491   6.248 -0.2527 -0.5938 -0.1808
10030WAT     H230493   7.324   1.359   6.185  1.7520 -0.6088  1.0407
10031WAT      O30494   4.670   0.419   5.081  0.7161  0.2848  0.1722
10031WAT     H130495   4.689   0.426   5.175  1.3770  0.6094  0.0235
10031WAT     H230496   4.715   0.339   5.054 -1.1696 -0.9511  0.5198
10032WAT      O30497   4.584   4.871   4.698  0.3242  0.0258 -0.0258
10032WAT     H130498   4.611   4.954   4.737  0.5759 -1.1189  2.4259
10032WAT     H230499   4.665   4.824   4.681  0.1662  0.0755 -0.9711
10033WAT      O30500   0.746   5.343   5.711  0.0166 -0.2551  0.2772
10033WAT     H130501   0.840   5.349   5.731 -0.6221  1.1128  3.4422
10033WAT     H230502   0.728   5.422   5.660  0.5352 -0.4793 -0.2751
10034WAT      O30503   1.507   4.742   3.859 -0.2947 -0.5294  0.3115
10034WAT     H130504   1.547   4.736   3.945 -0.8298  0.3788  0.6348
10034WAT     H230505   1.557   4.810   3.814 -2.2485  1.5831  1.1878
10035WAT      O30506   6.387   2.021   3.344 -0.0344  0.2495 -0.2536
10035WAT     H130507   6.394   2.026   3.439 -0.2679  0.3741 -0.2419
10035WAT     H230508   6.344   2.103   3.319  1.7095  1.0944 -0.6324
10036WAT      O30509   1.974   2.229   0.840 -0.0914  0.1062  0.4873
10036WAT     H130510   1.879   2.225   0.850  0.0021 -1.1155  1.1548
10036WAT     H230511   2.006   2.251   0.927  0.2431  0.3620  0.2999
10037WAT      O30512   4.063   7.215   4.395  0.3395  0.6697  0.4417
10037WAT     H130513   4.018   7.293   4.428  1.1246  0.3207  2.4633
10037WAT     H230514   4.019   7.142   4.438  1.2269  0.1712  0.5224
10038WAT      O30515   7.305   0.095   2.540 -0.8128  0.1011 -0.4824
10038WAT     H130516   7.346   0.026   2.488  2.2836 -0.8144  2.8067
10038WAT     H230517   7.378   0.145   2.576 -2.8882  3.0890 -0.0507
10039WAT      O30518   6.995   0.214   0.856  0.4844  0.0755 -0.2806
10039WAT     H130519   6.958   0.301   0.848  0.9171  0.1721 -1.4161
10039WAT     H230520   6.920   0.157   0.875  0.2379  0.7171  0.7240
10040WAT      O30521   4.982   4.145   1.536  0.2771 -0.2805  0.1583
10040WAT     H130522   5.016   4.108   1.455  0.3670 -1.7337  0.8377
10040WAT     H230523   5.061   4.173   1.584  0.4065 -1.6983  0.8065
10041WAT      O30524   4.057   3.687   2.508  0.5341 -0.1391 -0.0210
10041WAT     H130525   4.005   3.614   2.476 -0.2352 -0.3090  1.5491
10041WAT     H230526   4.000   3.732   2.570  1.4668  1.0177  0.0284
10042WAT      O30527   5.120   6.211   0.633 -0.0372  0.2192  0.2233
10042WAT     H130528   5.203   6.165   0.651  0.3296  1.5109  2.1462
10042WAT     H230529   5.054   6.142   0.636  0.8584 -0.6886 -0.3388
10043WAT      O30530   3.641   5.192   2.283 -0.3293 -0.1110  0.6460
10043WAT     H130531   3.547   5.174   2.277  0.0010 -1.7814 -0.0687
10043WAT     H230532   3.669   5.148   2.363  0.2285 -1.6249 -0.3434
10044WAT      O30533   4.118   3.843   0.718  0.3013  0.5323  0.1491
10044WAT     H130534   4.040   3.869   0.768 -0.1681 -0.2192 -0.1715
10044WAT     H230535   4.181   3.814   0.784 -0.7779 -1.7035  0.2895
10045WAT      O30536   5.261   5.345   5.407  0.1825  0.6265  0.0486
10045WAT     H130537   5.192   5.322   5.469 -1.0810 -0.0663 -1.5795
10045WAT     H230538   5.305   5.420   5.448 -0.7198  0.3017  1.6860
10046WAT      O30539   0.781   0.729   0.837  0.3827  0.3169  0.5318
10046WAT     H130540   0.722   0.654   0.826  2.1080 -0.8428 -1.6856
10046WAT     H230541   0.829   0.711   0.918  1.0710 -1.2577 -0.1833
10047WAT      O30542   5.509   2.715   1.041 -0.2348 -0.4013  0.3621
10047WAT     H130543   5.596   2.716   1.001  0.0775  0.6196  1.0156
10047WAT     H230544   5.455   2.665   0.981  0.2927  0.7993 -1.1764
10048WAT      O30545   5.534   6.989   4.256 -0.2285  0.0383 -0.6664
10048WAT     H130546   5.527   7.084   4.246  0.0202  0.2318  0.8041
10048WAT     H230547   5.443   6.959   4.257 -0.3408  0.3833 -0.1251
10049WAT      O30548   3.253   5.752   4.446 -0.4417 -0.4892 -0.5495
10049WAT     H130549   3.313   5.817   4.409 -0.4208  0.8411  1.6451
10049WAT     H230550   3.310   5.689   4.490 -0.5614  0.3162  0.8216
10050WAT      O30551   3.853   5.795   5.420 -0.0037 -0.5530  0.1152
10050WAT     H130552   3.765   5.774   5.387  0.5663  0.2540 -2.1367
10050WAT     H230553   3.837   5.849   5.497 -1.4722 -1.2771  0.3557
10051WAT      O30554   4.302   2.255   3.142 -0.4387  0.1849 -0.3091
10051WAT     H130555   4.310   2.348   3.124  0.0250  0.2110  0.0103
10051WAT     H230556   4.326   2.212   3.060  0.5932  0.3239 -0.1005
10052WAT      O30557   1.934   1.312   0.250 -0.2769  0.1465 -0.3294
10052WAT     H130558   1.961   1.221   0.257  0.6629  0.4702  0.4973
10052WAT     H230559   1.901   1.335   0.337 -1.8719  0.2010 -0.9135
10053WAT      O30560   1.421   0.406   3.376  0.0265  0.2566 -0.0111
10053WAT     H130561   1.514   0.420   3.358 -0.1036 -0.2943 -1.2457
10053WAT     H230562   1.377   0.479   3.333 -0.1767 -0.1315 -0.4777
10054WAT      O30563   0.641   4.770   0.829  0.0798 -0.0020 -0.2083
10054WAT     H130564   0.718   4.724   0.862 -0.4555 -0.9755 -0.2844
10054WAT     H230565   0.587   4.702   0.790 -1.3939  0.4489  0.9339
10055WAT      O30566   0.168   1.478   1.050 -0.1887 -0.2857 -0.1738
10055WAT     H130567   0.109   1.422   1.101 -1.1535 -0.7465 -1.7084
10055WAT     H230568   0.191   1.424   0.974 -0.0995  0.9430 -1.0431
10056WAT      O30569   3.364   6.775   1.291  0.8581  0.6012 -0.9719
10056WAT     H130570   3.373   6.867   1.264 -1.7591  0.7763 -1.5576
10056WAT     H230571   3.397   6.773   1.380 -1.8820  2.9351  0.2776
10057WAT      O30572   0.568   2.018   0.947  0.0709  0.1132 -0.6880
10057WAT     H130573   0.611   2.055   1.025 -0.1898 -0.1110 -0.4364
10057WAT     H230574   0.487   1.979   0.980 -0.0105 -0.0410 -1.0627
10058WAT      O30575   3.836   4.083   2.816  0.1302  0.3765 -0.3562
10058WAT     H130576   3.809   4.073   2.908  0.4343  2.5795  0.0450
10058WAT     H230577   3.770   4.142   2.779  0.2989 -0.0944 -1.4380
10059WAT      O30578   6.532   2.527   1.626  0.2953 -0.4059 -0.0894
10059WAT     H130579   6.607   2.555   1.679  0.1807 -0.4299  0.0877
10059WAT     H230580   6.570   2.473   1.557  0.3598 -1.0909  0.4763
10060WAT      O30581   6.509   6.431   5.397  0.1630 -0.4981  0.5379
10060WAT     H130582   6.449   6.391   5.460 -0.7302  0.8750  0.5971
10060WAT     H230583   6.499   6.525   5.410 -0.1043 -0.1606 -1.6950
10061WAT      O30584   5.595   0.318   4.990 -0.1279 -0.4243  0.0793
10061WAT     H130585   5.531   0.384   4.968 -0.6151 -1.7455 -2.9396
10061WAT     H230586   5.678   0.365   4.997 -0.7209  0.6936 -0.3248
10062WAT      O30587   4.845   3.636   3.406 -0.1919  0.2495 -0.2518
10062WAT     H130588   4.918   3.635   3.344 -1.6307  0.7614 -2.0415
10062WAT     H230589   4.886   3.625   3.492  1.9644  0.4589 -1.1965
10063WAT      O30590   0.804   2.957   0.406  0.2149 -0.2163  0.3183
10063WAT     H130591   0.748   3.033   0.427 -0.1842 -0.6265  0.7590
10063WAT     H230592   0.872   2.960   0.473  0.7034  0.2549 -0.1892
10064WAT      O30593   6.401   6.376   3.499  0.4504  0.3639  0.2944
10064WAT     H130594   6.480   6.429   3.491  0.8774 -0.3718 -0.5910
10064WAT     H230595   6.335   6.424   3.449  1.1396 -0.4588 -1.5202
10065WAT      O30596   1.642   4.210   5.170  0.0182 -0.2336  0.1364
10065WAT     H130597   1.647   4.250   5.257 -0.3528  1.7331 -0.6801
10065WAT     H230598   1.595   4.128   5.184  0.3544 -0.1856  1.8468
10066WAT      O30599   3.512   0.427   5.607 -0.4948  0.4674  0.4503
10066WAT     H130600   3.493   0.426   5.701 -2.2191  1.8641  0.1717
10066WAT     H230601   3.582   0.491   5.597  1.3392 -1.3448  0.9764
10067WAT      O30602   1.917   6.901   5.450 -0.0638  0.0889 -0.2300
10067WAT     H130603   1.991   6.850   5.420 -1.2481 -0.9798 -1.4764
10067WAT     H230604   1.948   6.992   5.448  1.2395 -0.3410 -0.5698
10068WAT      O30605   3.227   1.129   3.308 -0.0981  0.3821  0.2372
10068WAT     H130606   3.200   1.086   3.227 -0.6939 -1.7290  1.4876
10068WAT     H230607   3.153   1.186   3.330 -0.0417  0.7704 -0.5364
10069WAT      O30608   5.568   1.835   3.018 -0.4269 -0.2662  0.2039
10069WAT     H130609   5.563   1.923   3.056  1.2943  0.4606 -1.1086
10069WAT     H230610   5.631   1.789   3.073  0.0419 -0.0662 -0.1501
10070WAT      O30611   3.332   3.230   4.734 -0.1267  0.5349 -0.5457
10070WAT     H130612   3.280   3.198   4.808  1.7345 -3.0179 -0.5483
10070WAT     H230613   3.409   3.270   4.775  0.5445 -0.7633 -0.4835
10071WAT      O30614   5.740   2.353   4.399 -0.4715 -0.6337 -0.7125
10071WAT     H130615   5.835   2.348   4.388 -0.4626 -0.0419 -0.9292
10071WAT     H230616   5.719   2.445   4.386 -0.9308 -0.5436  0.4887
10072WAT      O30617   5.387   5.718   2.951  0.1228  0.5193  0.1658
10072WAT     H130618   5.343   5.729   3.035 -1.6470 -1.2821 -0.4556
10072WAT     H230619   5.455   5.654   2.968 -1.6903 -1.6110 -0.1621
10073WAT      O30620   4.127   0.982   4.663 -0.1257 -0.0760 -0.1933
10073WAT     H130621   4.158   0.900   4.702  0.3731  0.1378 -0.1345
10073WAT     H230622   4.034   0.966   4.645 -0.7264  0.2314  2.2150
10074WAT      O30623   4.138   4.611   0.445 -0.1010 -0.4448 -0.2536
10074WAT     H130624   4.127   4.649   0.532  0.1260 -1.4178  0.2241
10074WAT     H230625   4.229   4.630   0.422 -0.6574  1.4140 -1.1062
10075WAT      O30626   1.908   5.060   0.478 -0.3546  0.4991  0.7018
10075WAT     H130627   1.987   5.067   0.424 -0.4718 -1.5811  0.1726
10075WAT     H230628   1.899   4.967   0.495 -1.8549  0.8488  2.0682
10076WAT      O30629   1.008   0.710   3.264  0.9156 -0.7412 -0.0173
10076WAT     H130630   0.921   0.671   3.254 -0.1324  1.6247 -0.9785
10076WAT     H230631   1.017   0.725   3.358 -0.5987  0.7533 -0.0725
10077WAT      O30632   3.564   1.844   0.455  0.2433  0.1636 -0.4299
10077WAT     H130633   3.630   1.893   0.505  0.6718  1.0022 -1.7726
10077WAT     H230634   3.496   1.908   0.434  0.6016  0.1210 -1.8357
10078WAT      O30635   5.077   4.343   6.105  0.1071  0.3180  0.4189
10078WAT     H130636   5.120   4.259   6.124  2.9843  1.4934 -0.3438
10078WAT     H230637   5.129   4.408   6.152 -0.3689  1.9330 -1.1427
10079WAT      O30638   4.482   1.735   1.064  0.4881  0.3123 -0.5656
10079WAT     H130639   4.443   1.813   1.024 -2.1836 -1.2354 -1.2517
10079WAT     H230640   4.466   1.746   1.158 -1.4815 -0.1326 -0.8072
10080WAT      O30641   5.333   0.553   0.910  0.2669  0.9866 -0.2030
10080WAT     H130642   5.253   0.581   0.865 -0.2187  0.2602  0.1973
10080WAT     H230643   5.377   0.496   0.847 -0.2272  0.2708  0.0925
10081WAT      O30644   2.869   6.009   3.092  0.4269 -0.3008 -0.2877
10081WAT     H130645   2.819   6.002   3.174 -0.4339  1.3931 -0.6278
10081WAT     H230646   2.809   5.976   3.025  0.6015 -0.3650 -0.4113
10082WAT      O30647   4.882   5.090   3.941 -0.1487  0.0749  0.3145
10082WAT     H130648   4.797   5.119   3.909 -0.4946  0.3660  1.4526
10082WAT     H230649   4.921   5.168   3.981  0.0547 -0.3833  1.0338
10083WAT      O30650   2.592   1.884   5.889  0.4506  0.2130  0.2216
10083WAT     H130651   2.578   1.976   5.867  1.0209  0.4264  0.7063
10083WAT     H230652   2.516   1.861   5.941  0.7676  0.7111  0.9383
10084WAT      O30653   1.050   2.178   5.683 -0.2569  0.0320  0.0404
10084WAT     H130654   0.967   2.138   5.658 -0.1816 -0.8308  1.1091
10084WAT     H230655   1.038   2.202   5.775  0.0844  1.5024 -0.2747
10085WAT      O30656   3.786   1.579   4.077  0.3255  1.2305 -0.1643
10085WAT     H130657   3.766   1.486   4.068  0.6182  1.2323 -0.8770
10085WAT     H230658   3.784   1.613   3.988  2.4685  1.4538 -0.1712
10086WAT      O30659   5.552   3.840   3.499 -0.4289  0.1437  0.1067
10086WAT     H130660   5.503   3.914   3.535  0.3688  0.1453  1.2418
10086WAT     H230661   5.635   3.840   3.547  0.1619 -0.6390 -0.8713
10087WAT      O30662   6.566   0.373   3.468  0.4920 -0.6252  0.0974
10087WAT     H130663   6.608   0.456   3.488  1.3322 -1.1183  0.4612
10087WAT     H230664   6.586   0.358   3.376 -0.4307 -0.0063 -0.2175
10088WAT      O30665   1.958   0.530   0.239 -0.4067 -0.8303 -0.4170
10088WAT     H130666   2.011   0.451   0.228  0.3651 -0.6853  1.7460
10088WAT     H230667   1.942   0.534   0.334 -5.7953 -1.8126 -0.9965
10089WAT      O30668   6.211   3.670   6.096  0.1073  0.0967 -0.1254
10089WAT     H130669   6.209   3.578   6.122 -0.0930 -0.0770 -0.7165
10089WAT     H230670   6.147   3.712   6.153  0.1687 -0.1386  0.1212
10090WAT      O30671   0.603   0.519   1.196 -0.1795  0.5423 -0.1159
10090WAT     H130672   0.580   0.497   1.287  1.5242 -0.3562  0.1383
10090WAT     H230673   0.607   0.614   1.194 -1.4706  0.6362  0.4029
10091WAT      O30674   2.962   1.050   3.444  0.2408 -0.0884  0.0520
10091WAT     H130675   2.888   1.034   3.503 -0.8115  1.5728 -0.7379
10091WAT     H230676   3.009   1.123   3.483  0.2594  0.2100 -0.5242
10092WAT      O30677   7.410   5.882   4.234  0.2404 -0.1324  0.5714
10092WAT     H130678   7.464   5.838   4.299  1.1626  0.1795  0.0486
10092WAT     H230679   7.405   5.973   4.264  1.2591  0.1779 -0.1190
10093WAT      O30680   3.174   1.406   0.848  0.2227 -0.1901  0.0156
10093WAT     H130681   3.237   1.334   0.855  2.1285  1.3003 -0.7751
10093WAT     H230682   3.228   1.485   0.850 -1.8169  1.2807  1.3629
10094WAT      O30683   7.544   1.232   0.389  0.6484 -0.1607 -0.4722
10094WAT     H130684   7.551   1.243   0.484 -2.2161  1.8799 -0.3396
10094WAT     H230685   7.502   1.146   0.378  2.4996 -1.1661 -0.0649
10095WAT      O30686   7.613   6.745   2.594 -0.0611  0.7272 -0.3252
10095WAT     H130687   7.541   6.789   2.639 -0.9127  0.3086 -1.2429
10095WAT     H230688   7.609   6.655   2.626 -0.0142  0.6772 -0.4611
10096WAT      O30689   0.377   3.662   1.260 -0.4512  0.0698  0.4702
10096WAT     H130690   0.291   3.647   1.220  0.8486  0.0565 -2.5423
10096WAT     H230691   0.359   3.722   1.333 -3.1636 -1.0402  0.8267
10097WAT      O30692   3.864   7.061   5.551  0.0977 -0.3472  0.2938
10097WAT     H130693   3.872   7.102   5.637  0.3843  0.3553 -0.0539
10097WAT     H230694   3.792   7.107   5.508 -2.0904 -2.6835  1.2122
10098WAT      O30695   2.644   0.041   0.898 -0.5049  0.0717  0.4727
10098WAT     H130696   2.695   0.039   0.817 -2.1366 -1.4648 -0.5703
10098WAT     H230697   2.675  -0.035   0.947 -1.9547 -1.0971 -0.3343
10099WAT      O30698   4.755   4.268   1.453  0.8647  0.1695  0.2550
10099WAT     H130699   4.769   4.241   1.362  0.3078  2.3248 -0.5102
10099WAT     H230700   4.829   4.229   1.500  1.8774  0.0734 -1.3350
10100WAT      O30701   3.558   5.698   3.632 -0.0189  0.7519 -0.3583
10100WAT     H130702   3.524   5.669   3.716  0.7051 -1.7397 -0.8292
10100WAT     H230703   3.564   5.793   3.639 -1.3574  0.7264  1.8460
10101WAT      O30704   6.472   1.430   4.685  0.0232 -0.4269  0.4679
10101WAT     H130705   6.453   1.408   4.593 -1.4441  0.9954  0.3818
10101WAT     H230706   6.493   1.346   4.726  2.4221 -0.9134 -1.4981
10102WAT      O30707   2.714   6.652   4.367 -0.1660 -0.3172 -0.2726
10102WAT     H130708   2.774   6.725   4.384  0.5837 -0.5723 -1.6526
10102WAT     H230709   2.684   6.625   4.453 -0.7202  1.8310  0.2670
10103WAT      O30710   1.751   1.887   5.121 -0.3981 -0.4342  0.3205
10103WAT     H130711   1.669   1.896   5.075 -0.4596 -0.0892  0.4902
10103WAT     H230712   1.731   1.832   5.197 -0.2707 -1.1001 -0.1135
10104WAT      O30713   4.679   5.874   1.911  0.2281  0.3168 -0.2009
10104WAT     H130714   4.637   5.797   1.949 -0.5393  0.4440 -0.7912
10104WAT     H230715   4.726   5.914   1.984  0.8116 -0.8202  0.0702
10105WAT      O30716   6.490   0.232   0.029 -0.3994  0.3746 -0.2998
10105WAT     H130717   6.441   0.313   0.019 -1.6908 -0.1005  1.5564
10105WAT     H230718   6.438   0.180   0.091  0.6278 -1.6763 -1.0650
10106WAT      O30719   1.707   0.612   5.142 -0.2483  0.4542  0.3842
10106WAT     H130720   1.723   0.518   5.145  0.8698  0.6541  1.3992
10106WAT     H230721   1.794   0.652   5.143 -0.7173  1.5229  1.0312
10107WAT      O30722   5.312   1.936   0.851 -0.2536 -0.1650 -0.1738
10107WAT     H130723   5.291   2.026   0.877 -0.3345 -0.1429 -0.3144
10107WAT     H230724   5.376   1.907   0.915  0.8377  0.4745 -0.9398
10108WAT      O30725   1.446   3.366   4.748  0.9438 -0.0518  0.0448
10108WAT     H130726   1.422   3.361   4.656 -0.9640 -2.4086  0.5707
10108WAT     H230727   1.424   3.456   4.774  1.6032  0.6759 -1.7566
10109WAT      O30728   2.474   2.540   5.936  0.5122 -0.2735  0.6488
10109WAT     H130729   2.525   2.494   5.869 -0.4524 -0.1750 -0.1748
10109WAT     H230730   2.522   2.525   6.017  1.0671 -1.3847  0.1302
10110WAT      O30731   1.832   0.210   5.886 -0.5956  0.0760 -0.0820
10110WAT     H130732   1.755   0.185   5.937  0.1918 -0.6802  0.7826
10110WAT     H230733   1.902   0.220   5.951 -0.1492  1.5754 -0.7605
10111WAT      O30734   3.652   7.104   1.071  0.0013  0.1479 -0.5352
10111WAT     H130735   3.744   7.081   1.061  0.3448  0.9491  0.4476
10111WAT     H230736   3.635   7.092   1.165 -0.6807  0.6956 -0.5790
10112WAT      O30737   1.529   2.414   0.153  0.3239  0.0400  0.2596
10112WAT     H130738   1.577   2.494   0.130 -0.3936  0.5364  0.4470
10112WAT     H230739   1.523   2.417   0.249  0.2510 -0.2177  0.2627
10113WAT      O30740   1.112   5.915   1.211 -0.3821  0.4784  0.3122
10113WAT     H130741   1.187   5.871   1.170  1.6848  2.1045  2.1424
10113WAT     H230742   1.076   5.850   1.272 -0.8575 -0.4814 -0.9345
10114WAT      O30743   3.345   4.057   5.473  0.8867  0.3248 -0.4596
10114WAT     H130744   3.395   3.991   5.424  1.9253  0.5238  0.3022
10114WAT     H230745   3.332   4.018   5.559  0.0511  0.4406 -0.5296
10115WAT      O30746   5.210   5.901   1.833 -0.0385  0.0674  0.1719
10115WAT     H130747   5.160   5.828   1.871 -0.5930  0.5339  0.3504
10115WAT     H230748   5.275   5.859   1.777 -0.5194 -0.5552  0.0756
10116WAT      O30749   0.688   2.425   4.830 -0.2839 -0.3720  0.3266
10116WAT     H130750   0.649   2.484   4.895 -0.5057 -0.1542 -0.0050
10116WAT     H230751   0.657   2.338   4.856 -0.3327 -0.2925  0.5395
10117WAT      O30752   5.000   5.818   3.246 -0.4142 -0.0935 -0.0073
10117WAT     H130753   4.997   5.904   3.203  2.7464 -0.0218 -0.3457
10117WAT     H230754   5.001   5.838   3.340 -2.3998  0.0262  0.0256
10118WAT      O30755   6.034   3.023   2.249 -0.7096  0.1635 -0.0431
10118WAT     H130756   6.054   2.995   2.160 -0.4917 -0.1535  0.1011
10118WAT     H230757   5.973   2.956   2.282 -0.8255  0.3048  0.0284
10119WAT      O30758   4.056   0.205   1.394 -0.5748 -0.2714  0.3106
10119WAT     H130759   4.076   0.297   1.375 -1.4684 -0.2242 -0.4699
10119WAT     H230760   4.100   0.156   1.325  0.5530 -0.5082  1.1696
10120WAT      O30761   6.862   3.476   3.814 -0.2700  0.0745 -0.3108
10120WAT     H130762   6.829   3.485   3.724 -1.5049  0.3170  0.1419
10120WAT     H230763   6.890   3.564   3.838  0.0885  0.0035 -0.4704
10121WAT      O30764   5.947   3.019   3.464  0.3650  0.1183 -0.9299
10121WAT     H130765   5.991   3.036   3.547  1.5228 -3.6108 -0.6169
10121WAT     H230766   5.858   2.996   3.488  0.3872  0.1498 -0.8192
10122WAT      O30767   7.248   6.494   0.342  0.0178  0.4963 -0.2344
10122WAT     H130768   7.247   6.571   0.285 -0.6798  1.0708  0.5264
10122WAT     H230769   7.329   6.503   0.393  0.4740  0.1569 -0.8968
10123WAT      O30770   2.904   5.335   5.075 -0.6988  0.1917  0.4503
10123WAT     H130771   2.837   5.312   5.011  0.0211 -1.5557  0.2819
10123WAT     H230772   2.863   5.322   5.160 -1.1228  0.8816  0.3578
10124WAT      O30773   0.541   0.714   4.127  0.4963  0.8254  0.1418
10124WAT     H130774   0.459   0.680   4.163 -0.0239  1.2935 -0.5841
10124WAT     H230775   0.519   0.801   4.094  1.4209  1.1835  0.4324
10125WAT      O30776   4.178   5.488   4.765  0.0529  0.3970  0.3301
10125WAT     H130777   4.117   5.427   4.806 -1.0612  2.6819  2.3140
10125WAT     H230778   4.138   5.509   4.680 -1.3674  0.9927  1.1204
10126WAT      O30779   2.152   0.346   2.465 -0.0928 -0.3763 -0.0439
10126WAT     H130780   2.157   0.368   2.558 -1.0026  1.2554 -0.3618
10126WAT     H230781   2.175   0.427   2.419 -0.0908 -1.0359 -1.2606
10127WAT      O30782   5.298   3.360   3.841 -0.2685 -0.3560  0.5261
10127WAT     H130783   5.210   3.363   3.804  0.0971  0.4375 -0.3170
10127WAT     H230784   5.286   3.320   3.927 -1.7654  1.5312  1.2762
10128WAT      O30785   5.088   5.193   1.126 -0.4785  0.0086 -0.7145
10128WAT     H130786   5.179   5.189   1.095 -0.6036  0.0839 -1.1050
10128WAT     H230787   5.094   5.230   1.214  0.0266 -1.5439 -0.0589
10129WAT      O30788   0.391   3.262   1.434  0.5544  0.5156 -0.1977
10129WAT     H130789   0.389   3.168   1.455  1.1605  0.4182 -0.5466
10129WAT     H230790   0.320   3.300   1.486  0.4215 -0.1095  0.0867
10130WAT      O30791   0.931   6.965   0.803 -0.5710 -0.2571 -0.1532
10130WAT     H130792   1.002   6.980   0.866 -1.4703 -0.3642  0.9084
10130WAT     H230793   0.862   7.025   0.830 -1.6430 -1.5479  0.0414
10131WAT      O30794   2.404   2.450   4.388  0.3574  0.1240  0.0494
10131WAT     H130795   2.351   2.467   4.465  0.6682  0.6132  0.1607
10131WAT     H230796   2.495   2.462   4.417  0.5569 -1.0611 -0.0489
10132WAT      O30797   0.841   1.530   4.005  0.6283 -0.1489 -0.4636
10132WAT     H130798   0.855   1.482   4.087  0.5552 -0.7656 -0.8016
10132WAT     H230799   0.896   1.608   4.013  0.0497  0.1788  0.4811
10133WAT      O30800   4.215   4.896   3.893 -0.5569 -0.4810 -0.0033
10133WAT     H130801   4.123   4.900   3.919 -0.6935  0.0694 -0.5480
10133WAT     H230802   4.255   4.835   3.955 -1.4271 -1.2550 -0.1828
10134WAT      O30803   3.658   6.344   6.194 -0.0202 -0.3478 -0.4837
10134WAT     H130804   3.675   6.254   6.223 -0.4609 -0.1755  0.3460
10134WAT     H230805   3.567   6.359   6.218 -0.1827  0.0565 -1.3407
10135WAT      O30806   7.504   6.791   2.054  0.6447  0.4418 -0.8669
10135WAT     H130807   7.408   6.787   2.059  0.3927  0.5690 -3.7497
10135WAT     H230808   7.533   6.783   2.145 -2.1651  2.8425  0.4299
10136WAT      O30809   6.703   6.394   1.649  0.6609  0.4919  0.1296
10136WAT     H130810   6.652   6.386   1.569 -2.4755  1.8765  1.8365
10136WAT     H230811   6.762   6.468   1.633 -1.2650  1.9955 -0.2781
10137WAT      O30812   6.551   0.172   2.035 -0.1923  0.0443  0.1613
10137WAT     H130813   6.470   0.214   2.005 -1.3961 -1.5727  0.9623
10137WAT     H230814   6.529   0.079   2.040  1.7798 -0.4622  0.2996
10138WAT      O30815   0.679   0.705   4.709 -0.0397 -0.0086  0.3298
10138WAT     H130816   0.620   0.707   4.634  1.0400  1.0863 -0.5295
10138WAT     H230817   0.622   0.710   4.785 -1.1165 -0.3736 -0.4289
10139WAT      O30818   5.284   2.052   5.660  0.0043 -0.3705  0.1974
10139WAT     H130819   5.322   2.139   5.671  1.6878 -0.8883 -0.8810
10139WAT     H230820   5.310   2.004   5.739  0.1033 -0.2192  0.2575
10140WAT      O30821   0.329   2.426   3.540 -0.2107  0.1417 -0.1712
10140WAT     H130822   0.335   2.514   3.577  1.1835 -0.1106  0.2785
10140WAT     H230823   0.420   2.399   3.528 -0.4705  0.5443 -4.7118
10141WAT      O30824   5.695   1.436   0.227  0.4892  0.3598 -0.2545
10141WAT     H130825   5.619   1.463   0.278  1.2630 -0.3660  1.3489
10141WAT     H230826   5.749   1.386   0.289  2.0366  0.4489 -1.4754
10142WAT      O30827   5.720   0.675   4.144  0.0694 -0.3431  0.1817
10142WAT     H130828   5.710   0.674   4.239  0.0456 -0.6345  0.1761
10142WAT     H230829   5.699   0.765   4.119 -0.4653 -0.4102  0.3904
10143WAT      O30830   1.716   3.782   0.065 -0.0870 -0.7222  0.2798
10143WAT     H130831   1.784   3.714   0.068  0.6027 -0.1132 -0.8796
10143WAT     H230832   1.645   3.747   0.118  1.2374 -1.2694  1.7824
10144WAT      O30833   6.003   0.813   5.158 -0.0684  0.8558  0.1325
10144WAT     H130834   5.926   0.770   5.119 -0.4639  1.8389 -0.2103
10144WAT     H230835   5.970   0.851   5.240  0.1551  0.9225  0.1919
10145WAT      O30836   0.751   5.963   6.231  0.2492 -0.1766 -0.1625
10145WAT     H130837   0.804   6.041   6.249  1.4077 -1.1304  0.6494
10145WAT     H230838   0.703   5.947   6.312  1.6097 -1.5024  0.4187
10146WAT      O30839   0.525   4.077   1.115 -0.2674  0.2710  0.0866
10146WAT     H130840   0.596   4.124   1.071  0.9401  0.2336  1.8904
10146WAT     H230841   0.495   4.137   1.183 -0.9625 -0.2936  0.2861
10147WAT      O30842   6.883   1.062   1.029  0.2010 -0.4781  0.3553
10147WAT     H130843   6.874   1.149   1.068 -0.5673 -0.6017  0.4649
10147WAT     H230844   6.959   1.023   1.073  0.1783 -0.0901  0.7363
10148WAT      O30845   1.855   1.721   5.558 -0.0123  0.2682  0.1219
10148WAT     H130846   1.780   1.780   5.545  1.4306  2.0172 -0.7864
10148WAT     H230847   1.848   1.693   5.650 -1.8726  0.1982 -0.0056
10149WAT      O30848   2.365   6.665   0.391  0.6775  0.7420  0.5393
10149WAT     H130849   2.338   6.587   0.343  1.5912 -0.1708  1.4552
10149WAT     H230850   2.286   6.719   0.395 -0.1552 -0.4288  0.4594
10150WAT      O30851   6.970   4.441   0.003 -0.5377 -0.1234 -0.2463
10150WAT     H130852   7.023   4.398   0.070 -0.5552 -0.1007 -0.2178
10150WAT     H230853   6.903   4.376  -0.019 -2.1290  0.7855  1.6102
10151WAT      O30854   5.748   0.340   6.163  0.2242 -0.6180  0.4148
10151WAT     H130855   5.669   0.290   6.184 -0.1611  0.0454  0.5725
10151WAT     H230856   5.818   0.297   6.212 -0.5911  0.7263  2.8997
10152WAT      O30857   3.488   1.153   6.156 -0.3069  0.0727 -0.2571
10152WAT     H130858   3.564   1.203   6.125  2.0215 -2.6326  0.7053
10152WAT     H230859   3.415   1.215   6.150  1.0616  1.7085 -5.0608
10153WAT      O30860   1.695   6.652   4.684  0.2483  0.6569 -0.1866
10153WAT     H130861   1.623   6.602   4.645  1.3369 -0.3910 -0.9043
10153WAT     H230862   1.655   6.694   4.761 -1.0671 -0.1032 -0.4143
10154WAT      O30863   3.534   2.610   4.005 -0.3860 -0.0988 -0.1014
10154WAT     H130864   3.480   2.687   3.987 -0.7554 -0.1610  0.6638
10154WAT     H230865   3.570   2.627   4.093 -0.8245 -0.9839  0.2622
10155WAT      O30866   4.247   6.132   5.987 -0.0594 -0.1434 -0.4142
10155WAT     H130867   4.161   6.097   6.010  0.2996  0.4331  2.1978
10155WAT     H230868   4.304   6.103   6.058  1.7820  0.0329 -1.7557
10156WAT      O30869   4.374   1.627   1.682  0.0146 -0.5676  0.3782
10156WAT     H130870   4.383   1.559   1.617 -1.2257  0.8927 -1.4186
10156WAT     H230871   4.282   1.652   1.679  0.5286  1.5737  0.5190
10157WAT      O30872   4.201   6.288   1.484  0.0031 -0.0534  0.3997
10157WAT     H130873   4.107   6.297   1.470  0.2846  1.8881 -0.4689
10157WAT     H230874   4.221   6.352   1.552  0.7398 -0.3200  0.4418
10158WAT      O30875   3.165   5.133   4.329 -0.4610 -0.3978 -0.1710
10158WAT     H130876   3.229   5.085   4.276 -0.6215 -0.6857 -0.1108
10158WAT     H230877   3.149   5.075   4.404 -0.1054  0.0812  0.2799
10159WAT      O30878   0.105   3.451   5.261  0.6931  0.4067 -0.3523
10159WAT     H130879   0.110   3.378   5.200 -0.8980  1.3509 -1.7162
10159WAT     H230880   0.127   3.414   5.346  0.4328 -1.5280 -1.0950
10160WAT      O30881   7.464   0.974   3.153 -0.8425  0.1099  0.1491
10160WAT     H130882   7.460   0.881   3.176 -1.9906 -0.2527 -1.4198
10160WAT     H230883   7.408   1.017   3.218 -0.6459 -0.3323  0.6223
10161WAT      O30884   6.408   3.580   1.684  0.0053 -0.4903  0.5706
10161WAT     H130885   6.415   3.670   1.654 -0.5370 -0.6451 -0.0523
10161WAT     H230886   6.482   3.535   1.643 -1.5408 -1.0188 -1.8089
10162WAT      O30887   1.510   3.425   4.450  0.5318 -0.7607  0.2683
10162WAT     H130888   1.459   3.456   4.375  0.1924 -1.8550  0.0293
10162WAT     H230889   1.538   3.505   4.495 -1.2402 -0.1188  0.3045
10163WAT      O30890   5.643   6.542   4.662  0.1073 -0.1797  0.4101
10163WAT     H130891   5.579   6.612   4.643 -0.5164 -1.0425 -0.8067
10163WAT     H230892   5.591   6.474   4.706  0.1634 -0.8699 -0.5519
10164WAT      O30893   4.695   0.348   2.908 -0.5131  0.3156  0.4194
10164WAT     H130894   4.707   0.288   2.981 -0.1407  1.2017  1.1097
10164WAT     H230895   4.627   0.409   2.937 -1.5938 -0.3362 -0.6540
10165WAT      O30896   2.282   5.082   3.725 -0.5951 -0.4522  0.4479
10165WAT     H130897   2.272   5.065   3.631 -1.4792  0.6777  0.3169
10165WAT     H230898   2.370   5.050   3.746 -0.5280 -1.0555 -0.6804
10166WAT      O30899   6.656   2.746   2.433  0.3108  0.1181 -0.2452
10166WAT     H130900   6.724   2.680   2.445 -0.4774 -1.2149 -2.4759
10166WAT     H230901   6.656   2.796   2.514  1.9496 -1.6933  0.9537
10167WAT      O30902   1.779   2.425   4.458 -0.3242 -0.1569 -0.1998
10167WAT     H130903   1.686   2.433   4.481  0.0965 -1.1896  2.1722
10167WAT     H230904   1.810   2.350   4.510  1.5013 -0.8226 -2.1016
10168WAT      O30905   7.066   0.413   2.486 -1.0226 -0.0406  0.1297
10168WAT     H130906   7.041   0.472   2.415  1.5689 -1.7432 -2.4596
10168WAT     H230907   7.122   0.465   2.543 -2.6071  1.1805  0.6405
10169WAT      O30908   7.140   7.011   5.292  0.1329  0.7795  0.0893
10169WAT     H130909   7.205   6.948   5.323  0.0819  0.8451  0.3342
10169WAT     H230910   7.168   7.033   5.203  0.5876  0.9969  0.2827
10170WAT      O30911   6.260   2.826   4.250 -0.4642  0.0412 -0.3351
10170WAT     H130912   6.332   2.790   4.301 -0.8864  1.3920  1.3093
10170WAT     H230913   6.288   2.915   4.229 -1.8529  0.8028  0.8524
10171WAT      O30914   6.912   0.772   6.113  0.4236 -0.0268  0.0858
10171WAT     H130915   7.005   0.769   6.133  0.4637 -0.0659 -0.0990
10171WAT     H230916   6.892   0.865   6.103  0.5620 -0.0445 -0.4047
10172WAT      O30917   0.788   0.382   1.905  0.7936  0.1146  0.0228
10172WAT     H130918   0.753   0.292   1.900  0.2725  0.1809  1.8489
10172WAT     H230919   0.861   0.382   1.844 -0.2573 -1.0472 -1.3263
10173WAT      O30920   6.955   2.908   0.738 -0.5220 -0.4224  0.0653
10173WAT     H130921   6.996   2.978   0.688 -0.8829 -0.1883  0.0893
10173WAT     H230922   6.963   2.831   0.683  1.3152 -0.7409  0.7176
10174WAT      O30923   4.839   2.051   2.393  0.1955 -0.1843  0.0762
10174WAT     H130924   4.759   2.024   2.438  1.0450 -1.5280  0.8818
10174WAT     H230925   4.812   2.122   2.336 -1.4523 -0.2093  0.7614
10175WAT      O30926   2.899   2.599   4.678 -0.2472  0.2709  0.5470
10175WAT     H130927   2.993   2.600   4.656 -0.2934 -0.7784  0.2536
10175WAT     H230928   2.896   2.565   4.768 -0.2823  1.4139  0.9945
10176WAT      O30929   4.093   3.069   2.073  0.2895  0.0869  0.4591
10176WAT     H130930   4.090   3.032   2.161 -0.8208  1.8272  1.2079
10176WAT     H230931   4.007   3.109   2.061  0.0991 -0.8757 -1.7927
10177WAT      O30932   3.109   3.228   3.818  0.5684 -0.4267 -0.1306
10177WAT     H130933   3.058   3.252   3.896  0.8280 -0.8073  0.1608
10177WAT     H230934   3.187   3.185   3.853  0.7787 -0.4254 -0.5965
10178WAT      O30935   6.653   1.761   2.353 -0.2365 -0.1133  0.0838
10178WAT     H130936   6.578   1.820   2.351 -0.9270 -0.9746  0.2530
10178WAT     H230937   6.729   1.820   2.357 -0.8890  0.7654 -0.0925
10179WAT      O30938   3.605   0.299   1.615 -0.2810  0.2093 -0.1447
10179WAT     H130939   3.564   0.291   1.702  1.3755  1.2176  0.7701
10179WAT     H230940   3.692   0.333   1.633  0.9671 -1.7303 -2.0481
10180WAT      O30941   1.806   2.338   5.264 -0.1478 -0.3168 -0.4498
10180WAT     H130942   1.828   2.431   5.267 -0.0494 -0.3540  0.1302
10180WAT     H230943   1.761   2.321   5.347 -0.9053 -0.6097 -0.9022
10181WAT      O30944   0.003   7.179   1.051  0.8708  0.1705 -0.1650
10181WAT     H130945  -0.076   7.157   1.101 -0.0108 -1.0788 -1.9730
10181WAT     H230946   0.070   7.195   1.118 -0.9242  1.4882  1.4393
10182WAT      O30947   4.300   5.137   1.665  0.3425  0.3814 -0.5029
10182WAT     H130948   4.288   5.045   1.642  2.2405  0.1255 -0.6263
10182WAT     H230949   4.212   5.175   1.661 -0.1288 -0.7856 -3.1848
10183WAT      O30950   6.716   4.727   2.022  0.1326  0.2526  0.4181
10183WAT     H130951   6.680   4.649   2.065 -0.4453 -1.4516 -2.8618
10183WAT     H230952   6.647   4.793   2.030 -0.5086 -0.4559  0.9021
10184WAT      O30953   1.570   6.399   1.102 -0.4717  0.6537  0.0465
10184WAT     H130954   1.601   6.316   1.139 -0.5164  0.3583 -0.5688
10184WAT     H230955   1.639   6.426   1.042 -1.0041  0.4409 -0.6720
10185WAT      O30956   0.792   4.394   3.398 -0.5108 -0.6027 -0.0584
10185WAT     H130957   0.865   4.455   3.404 -0.2769 -0.8660 -0.1885
10185WAT     H230958   0.808   4.345   3.318 -1.2603 -0.1224 -0.5070
10186WAT      O30959   2.360   4.295   1.706 -0.5213  0.4783 -0.5953
10186WAT     H130960   2.273   4.257   1.716 -1.0141  1.9553  1.3762
10186WAT     H230961   2.345   4.388   1.689  0.6537  0.7246 -0.4254
10187WAT      O30962   1.573   2.707   4.872 -0.3480 -0.2558 -0.2516
10187WAT     H130963   1.556   2.701   4.966  1.6436  0.8965  0.2394
10187WAT     H230964   1.603   2.619   4.848 -0.8236 -0.5491  0.2061
10188WAT      O30965   6.914   1.022   4.496  0.3284  0.1370 -0.3737
10188WAT     H130966   6.862   1.092   4.534 -0.5377 -0.4621 -0.4249
10188WAT     H230967   6.959   0.982   4.570 -1.4225 -1.0854  0.0854
10189WAT      O30968   1.344   2.965   4.589  0.2113 -0.0826  0.2848
10189WAT     H130969   1.250   2.985   4.595  0.3520  0.2400  1.9569
10189WAT     H230970   1.377   3.027   4.524 -0.6835  0.0013 -0.1061
10190WAT      O30971   7.014   2.342   0.752  0.3515  0.2178 -0.2766
10190WAT     H130972   7.087   2.404   0.759  1.1835 -0.8199  0.4804
10190WAT     H230973   6.951   2.372   0.816  0.1928  0.9920 -0.7762
10191WAT      O30974   7.586   3.770   6.048  0.0838  0.0746  0.3711
10191WAT     H130975   7.608   3.677   6.061 -1.4441 -0.4277 -0.4493
10191WAT     H230976   7.669   3.810   6.022  0.7079 -1.1264  0.4200
10192WAT      O30977   1.289   1.619   4.433  0.3423  0.1597  0.3279
10192WAT     H130978   1.350   1.665   4.490 -0.5239 -1.2764  2.5307
10192WAT     H230979   1.229   1.574   4.492  1.0005 -3.6543 -1.5868
10193WAT      O30980   2.559   1.052   2.002 -0.1966 -0.4371 -0.0946
10193WAT     H130981   2.467   1.072   1.984 -0.4966 -0.3390  1.3925
10193WAT     H230982   2.605   1.078   1.923 -1.3334  0.4298 -0.5029
10194WAT      O30983   5.626   1.033   1.404  0.1740 -0.1569  0.0160
10194WAT     H130984   5.535   1.025   1.430  0.6078 -2.0952  1.0761
10194WAT     H230985   5.631   0.990   1.319  0.1437 -0.2585  0.0653
10195WAT      O30986   4.673   4.704   4.945  0.2758 -0.3495 -0.0281
10195WAT     H130987   4.662   4.629   5.003 -0.2149 -0.3027 -0.0551
10195WAT     H230988   4.585   4.719   4.908  0.5964 -0.4466 -0.8607
10196WAT      O30989   5.727   5.399   4.576 -0.2326  0.1108  0.7215
10196WAT     H130990   5.709   5.314   4.537  1.4033 -0.5114  1.2463
10196WAT     H230991   5.718   5.385   4.670 -1.1699  0.8441  0.7525
10197WAT      O30992   5.650   0.285   2.443  0.5234  0.0675 -0.0780
10197WAT     H130993   5.587   0.262   2.375  1.2479  0.6565 -0.9724
10197WAT     H230994   5.632   0.223   2.514  0.0873 -0.9128 -1.0107
10198WAT      O30995   3.368   0.511   0.221 -0.6491 -0.7259  0.4634
10198WAT     H130996   3.385   0.590   0.273 -0.8505 -1.1020  1.1092
10198WAT     H230997   3.313   0.456   0.277  1.3964 -2.3590  0.9836
10199WAT      O30998   5.187   6.621   4.834 -0.8071 -0.3150 -0.0575
10199WAT     H130999   5.140   6.661   4.907 -1.9179  0.1159 -0.9849
10199WAT     H231000   5.272   6.665   4.833 -1.3332  0.7250  0.0898
10200WAT      O31001   2.235   4.958   2.606 -0.2482  0.0558  0.1177
10200WAT     H131002   2.161   4.920   2.653 -1.5583  2.4024  0.1612
10200WAT     H231003   2.303   4.969   2.672  0.9531 -3.7406 -0.2713
10201WAT      O31004   4.511   1.363   2.838  0.6259 -0.0145  0.0982
10201WAT     H131005   4.561   1.398   2.912  2.5470  1.1709 -1.6705
10201WAT     H231006   4.573   1.361   2.765 -1.1477 -1.3039 -1.4671
10202WAT      O31007   4.459   4.126   1.693  0.3953  0.0307  0.3160
10202WAT     H131008   4.378   4.167   1.722  0.9260  0.7312  0.8437
10202WAT     H231009   4.528   4.175   1.738  1.1080 -0.5886 -0.0815
10203WAT      O31010   7.636   6.676   6.222 -0.2284  0.3633 -0.3332
10203WAT     H131011   7.555   6.656   6.268  1.0608 -0.1807  1.8601
10203WAT     H231012   7.609   6.701   6.134 -2.8537  1.4565  0.6941
10204WAT      O31013   3.180   6.328   1.238  0.3272 -0.6049 -0.1025
10204WAT     H131014   3.219   6.293   1.318 -0.3344 -0.1551  0.4205
10204WAT     H231015   3.087   6.306   1.244  0.0357  0.5653 -0.1204
10205WAT      O31016   2.372   1.516   0.322  0.3398  0.0811  0.1547
10205WAT     H131017   2.329   1.486   0.402  1.2040 -1.1447  0.1837
10205WAT     H231018   2.422   1.593   0.349  0.1540  0.0299  0.6597
10206WAT      O31019   1.681   6.792   2.895  0.1854  0.7180  0.0812
10206WAT     H131020   1.596   6.797   2.939 -0.1399 -0.4976 -0.3571
10206WAT     H231021   1.734   6.860   2.936 -0.5557  0.5570  1.3438
10207WAT      O31022   5.607   2.935   0.306  0.0102  0.5927  0.4804
10207WAT     H131023   5.694   2.931   0.347 -0.1482  2.6959  1.1663
10207WAT     H231024   5.547   2.951   0.379 -0.8646 -0.1321 -0.0742
10208WAT      O31025   6.885   6.177   5.252  0.0917  0.2523 -0.0187
10208WAT     H131026   6.916   6.227   5.176 -0.2441  1.1202  0.4010
10208WAT     H231027   6.963   6.165   5.307 -0.1074  1.6286  0.5940
10209WAT      O31028   3.793   6.485   1.001 -0.2281 -0.1400 -0.0360
10209WAT     H131029   3.711   6.535   0.997 -1.0672 -1.4526  0.0053
10209WAT     H231030   3.812   6.465   0.910  0.0622  0.1732 -0.0456
10210WAT      O31031   2.565   4.160   0.535 -0.0684 -0.4952  0.2280
10210WAT     H131032   2.618   4.200   0.604  1.7325 -1.2893 -0.6239
10210WAT     H231033   2.520   4.087   0.578 -4.0843  2.6570  2.0224
10211WAT      O31034   0.573   5.534   2.661  0.3256 -0.4311 -0.0189
10211WAT     H131035   0.662   5.540   2.628 -0.3899 -1.0859 -2.2583
10211WAT     H231036   0.527   5.482   2.596 -1.8599  0.4678  0.7094
10212WAT      O31037   2.411   2.344   0.951  0.1611  0.1616  0.3128
10212WAT     H131038   2.460   2.419   0.918 -2.9234  1.4362 -1.9210
10212WAT     H231039   2.362   2.378   1.027 -2.4606  1.0833 -1.6314
10213WAT      O31040   7.053   3.098   0.994  0.0106 -0.1106  0.5565
10213WAT     H131041   7.014   3.035   0.933 -0.9229  0.4923  0.5059
10213WAT     H231042   6.979   3.149   1.027  0.7634  1.1545  0.3850
10214WAT      O31043   4.440   5.417   3.378 -0.1227 -0.3309 -0.3332
10214WAT     H131044   4.503   5.350   3.353  0.1554 -0.1860 -0.0269
10214WAT     H231045   4.449   5.425   3.473  0.8542  1.1288 -0.5174
10215WAT      O31046   3.051   1.389   4.987  0.1544  0.7246 -0.7066
10215WAT     H131047   3.003   1.310   4.964  0.6269  0.4390 -0.7426
10215WAT     H231048   2.986   1.459   4.986  0.0347  0.6151 -2.2682
10216WAT      O31049   2.035   5.116   2.049 -0.0979 -0.0434  0.0693
10216WAT     H131050   2.031   5.021   2.033 -0.2322 -0.0821  0.3252
10216WAT     H231051   2.127   5.133   2.069 -0.0678 -0.1155 -0.0050
10217WAT      O31052   2.980   2.475   4.037 -0.5973 -0.2460 -0.2915
10217WAT     H131053   2.952   2.429   3.958  0.2732  2.1734 -2.1071
10217WAT     H231054   3.075   2.465   4.038 -0.3736  1.5349 -0.8004
10218WAT      O31055   3.794   6.249   0.574  0.3940 -0.7869  0.3176
10218WAT     H131056   3.706   6.220   0.598  0.1848 -1.3202 -0.9845
10218WAT     H231057   3.851   6.178   0.601  0.1893 -1.2781 -0.5055
10219WAT      O31058   0.338   0.279   1.052  0.1146 -0.1005 -0.2306
10219WAT     H131059   0.303   0.363   1.082  2.4548  0.7277  0.3986
10219WAT     H231060   0.308   0.216   1.118  0.1447  0.6351  0.5037
10220WAT      O31061   2.852   4.720   5.289 -0.2068 -0.2218  0.0666
10220WAT     H131062   2.825   4.631   5.311 -1.3320  0.0423 -0.1658
10220WAT     H231063   2.843   4.769   5.370 -0.1900 -0.1873  0.0478
10221WAT      O31064   3.788   2.048   3.709 -0.1368  0.7175 -0.4138
10221WAT     H131065   3.812   2.011   3.794  0.9018  0.5463 -0.7644
10221WAT     H231066   3.803   2.142   3.718 -0.9347  0.8243 -0.1228
10222WAT      O31067   4.158   5.009   5.280 -0.0260 -0.5115  0.3728
10222WAT     H131068   4.142   4.922   5.315 -0.2165 -0.4397  0.4630
10222WAT     H231069   4.094   5.019   5.209  1.5724 -1.3878 -1.2600
10223WAT      O31070   4.931   1.226   5.340 -0.0199  0.0343 -0.0183
10223WAT     H131071   4.916   1.297   5.403  1.4310  0.5647 -0.2158
10223WAT     H231072   5.015   1.248   5.300 -1.4596  0.4347 -3.0881
10224WAT      O31073   2.209   2.784   2.408 -0.4011  0.0529  0.5778
10224WAT     H131074   2.142   2.822   2.465 -1.4365 -0.3574 -0.3345
10224WAT     H231075   2.204   2.690   2.426 -0.7973 -0.0887 -0.2388
10225WAT      O31076   2.062   1.430   0.040  0.3162 -0.4498 -0.0462
10225WAT     H131077   2.009   1.376   0.099  0.3529 -1.3741 -0.8314
10225WAT     H231078   2.091   1.504   0.094 -2.6643  0.7275  0.1832
10226WAT      O31079   4.422   1.484   6.013 -0.0603 -0.0377 -0.7092
10226WAT     H131080   4.510   1.456   5.988 -0.0549  0.6806 -1.5555
10226WAT     H231081   4.370   1.477   5.932 -1.0861 -1.5223  0.0215
10227WAT      O31082   4.473   2.285   3.870  0.1172  0.2436  0.8370
10227WAT     H131083   4.438   2.334   3.944  2.1729  1.5158  1.0540
10227WAT     H231084   4.527   2.217   3.911  0.1223  0.0525  0.5142
10228WAT      O31085   1.629   4.927   5.747 -0.4893  0.2877 -0.0847
10228WAT     H131086   1.599   5.013   5.775 -0.8101 -0.4254  1.9012
10228WAT     H231087   1.574   4.865   5.794  0.5071 -1.0214 -0.5655
10229WAT      O31088   2.545   5.763   2.956 -0.1657 -0.0513  0.3687
10229WAT     H131089   2.624   5.802   2.918 -0.0834 -1.8585 -1.4770
10229WAT     H231090   2.577   5.706   3.026  0.1169 -0.2958  0.0404
10230WAT      O31091   3.483   4.474   5.551  0.7111 -0.1790 -0.1791
10230WAT     H131092   3.506   4.548   5.607 -0.4722 -0.9146  1.3647
10230WAT     H231093   3.403   4.503   5.506  1.5491  0.3350 -1.3778
10231WAT      O31094   1.683   1.774   3.162 -0.0031 -0.3075  0.3356
10231WAT     H131095   1.614   1.768   3.228  0.7272  1.2215  1.3121
10231WAT     H231096   1.758   1.731   3.203  0.1008 -0.4547 -0.0111
10232WAT      O31097   6.118   5.085   5.382 -0.4984 -0.6638  0.4485
10232WAT     H131098   6.171   5.069   5.460  0.2545 -0.0100  0.0930
10232WAT     H231099   6.075   5.002   5.364 -0.9806 -0.7219  1.7643
10233WAT      O31100   1.994   4.648   4.128  0.6782 -0.1706 -0.0317
10233WAT     H131101   2.010   4.705   4.202  0.8060 -0.9850  0.5754
10233WAT     H231102   1.908   4.609   4.146  0.9826 -0.8340 -0.0041
10234WAT      O31103   3.284   5.855   5.839  0.0092 -0.7073 -0.2652
10234WAT     H131104   3.191   5.837   5.851 -0.0129 -0.0927  0.6459
10234WAT     H231105   3.288   5.949   5.821  0.4295 -0.7931 -0.6372
10235WAT      O31106   5.793   3.687   0.816  0.3277 -0.4314 -0.2209
10235WAT     H131107   5.754   3.774   0.807  2.2436  0.5989  0.7948
10235WAT     H231108   5.734   3.629   0.768 -1.4597  1.2810 -0.2269
10236WAT      O31109   0.046   6.444   3.803 -0.0803 -0.2169 -0.1866
10236WAT     H131110   0.079   6.533   3.818  0.4337 -0.5699  0.8685
10236WAT     H231111  -0.028   6.436   3.864  0.3092 -0.7416  0.2233
10237WAT      O31112   3.338   1.195   1.376 -0.4197 -0.1103  0.1664
10237WAT     H131113   3.332   1.139   1.452  0.8341 -0.9695 -0.3371
10237WAT     H231114   3.317   1.283   1.409 -1.1822 -0.6712  1.2101
10238WAT      O31115   0.294   1.530   0.329  0.0354 -0.0941  0.2434
10238WAT     H131116   0.229   1.467   0.362 -0.7723  1.2599  1.3428
10238WAT     H231117   0.315   1.584   0.405 -0.3393  1.8329 -0.9685
10239WAT      O31118   0.982   3.686   5.309  0.2510 -0.2992  0.4392
10239WAT     H131119   1.034   3.747   5.361 -0.1101 -0.2909  0.7930
10239WAT     H231120   1.023   3.687   5.222  0.7838 -0.2266  0.6909
10240WAT      O31121   0.721   3.839   1.176 -0.4640 -0.3731 -0.1583
10240WAT     H131122   0.758   3.923   1.150  0.6332 -1.4360 -2.2953
10240WAT     H231123   0.662   3.860   1.248  0.7684  2.0367  0.2626
10241WAT      O31124   1.586   6.099   5.423  0.3196  0.0731  0.2610
10241WAT     H131125   1.601   6.142   5.339  0.3920  0.2132  0.3442
10241WAT     H231126   1.509   6.044   5.409  1.1960 -1.0493 -0.3196
10242WAT      O31127   5.182   0.286   4.183  0.7987 -0.1070 -0.7061
10242WAT     H131128   5.211   0.360   4.130  0.8780  0.7611  0.5025
10242WAT     H231129   5.103   0.254   4.140  0.3143  1.1880 -0.7985
10243WAT      O31130   3.679   6.207   2.613 -0.2722  0.1595  0.5955
10243WAT     H131131   3.762   6.177   2.651 -1.1322 -0.1841  2.2926
10243WAT     H231132   3.676   6.301   2.634  0.0345  0.3479 -0.1665
10244WAT      O31133   5.023   5.289   5.571 -0.1411 -0.4566  0.3358
10244WAT     H131134   4.952   5.228   5.589 -1.3139  0.3935 -1.1332
10244WAT     H231135   4.980   5.375   5.563  1.4244  0.5893  2.1587
10245WAT      O31136   7.495   0.174   6.209  0.0974  0.3347 -0.4047
10245WAT     H131137   7.534   0.129   6.134 -0.0643  1.5112 -1.2187
10245WAT     H231138   7.402   0.153   6.205  0.1841 -0.1030 -0.1655
10246WAT      O31139   3.928   2.643   0.978 -0.0511 -0.3630  0.1862
10246WAT     H131140   3.919   2.735   0.954  0.0980 -0.4529 -0.2150
10246WAT     H231141   3.857   2.627   1.040  1.4011  0.7016  2.2623
10247WAT      O31142   0.575   3.543   1.686  0.4805 -0.0030 -0.1706
10247WAT     H131143   0.481   3.557   1.674  0.8305  1.0116 -2.0215
10247WAT     H231144   0.585   3.448   1.687 -0.7215 -0.1573  1.7112
10248WAT      O31145   7.242   3.920   3.051  0.0512  0.3316  0.3295
10248WAT     H131146   7.262   3.997   3.104 -0.9735  1.2680 -0.5972
10248WAT     H231147   7.281   3.847   3.099  0.3717  1.3225  1.6260
10249WAT      O31148   5.349   5.075   1.127 -0.3164  0.5051  0.4992
10249WAT     H131149   5.403   5.122   1.191  0.3509 -0.6556  0.8155
10249WAT     H231150   5.314   5.001   1.176 -0.0763 -0.2034 -0.3767
10250WAT      O31151   1.647   5.956   4.637 -0.1530 -0.1689 -0.5838
10250WAT     H131152   1.702   5.894   4.589 -0.1575 -0.2614 -0.4682
10250WAT     H231153   1.676   6.042   4.605 -0.6045 -0.2520 -1.2299
10251WAT      O31154   4.159   5.711   0.969  0.4529  0.0490  0.0983
10251WAT     H131155   4.142   5.786   1.026 -0.9259  0.2201 -0.4931
10251WAT     H231156   4.228   5.663   1.013 -0.6357  0.1188  1.9958
10252WAT      O31157   1.192   6.103   0.237  0.1892 -0.5337  0.0354
10252WAT     H131158   1.150   6.111   0.151  1.0497 -3.3338 -0.7633
10252WAT     H231159   1.131   6.145   0.298 -0.5247  1.3999 -1.8780
10253WAT      O31160   7.068   0.794   0.888 -0.2469 -0.1515  0.0280
10253WAT     H131161   7.087   0.856   0.817  0.7080 -1.5804 -1.0383
10253WAT     H231162   7.151   0.787   0.936 -0.7766  0.5055  1.0599
10254WAT      O31163   6.354   0.982   2.870 -0.5246 -0.1704  0.4337
10254WAT     H131164   6.374   0.911   2.931 -2.2602  0.6173  2.0095
10254WAT     H231165   6.412   1.054   2.898 -0.9322  0.0114  0.8249
10255WAT      O31166   4.999   6.034   3.734  0.0076 -0.2661  0.7245
10255WAT     H131167   5.057   6.074   3.799  0.1061  0.5683  0.1398
10255WAT     H231168   4.929   6.097   3.723  0.8627  0.4229 -1.2168
10256WAT      O31169   2.161   1.037   4.708  0.1248  0.2280  1.0862
10256WAT     H131170   2.193   1.099   4.774 -1.2491  2.8612 -0.5170
10256WAT     H231171   2.083   1.079   4.672 -1.1292 -2.7026  0.1030
10257WAT      O31172   7.347   1.800   4.714 -0.2723 -0.2565  0.1510
10257WAT     H131173   7.368   1.856   4.789 -1.1063  1.2310 -0.6699
10257WAT     H231174   7.269   1.752   4.742  1.2341 -2.1065  1.3721
10258WAT      O31175   2.717   0.288   3.074 -0.3099 -0.5252 -0.2392
10258WAT     H131176   2.708   0.384   3.072  0.7610 -0.4201 -0.5948
10258WAT     H231177   2.688   0.259   2.988 -0.9704 -0.5591 -0.0095
10259WAT      O31178   6.297   7.147   5.019 -0.2456 -0.4224  0.1174
10259WAT     H131179   6.389   7.137   5.044 -0.4529 -0.9375  0.6930
10259WAT     H231180   6.289   7.240   4.997  0.5075 -0.4515 -0.3562
10260WAT      O31181   5.407   0.378   1.657 -0.7766  0.6746  0.1859
10260WAT     H131182   5.452   0.457   1.688 -0.5528  1.9730 -3.0088
10260WAT     H231183   5.452   0.306   1.701  3.5491  1.9524 -1.5941
10261WAT      O31184   5.517   2.858   5.375 -0.2430  0.0715  0.3222
10261WAT     H131185   5.555   2.869   5.462  0.6935 -1.1979  0.0991
10261WAT     H231186   5.549   2.934   5.326 -2.5477  2.0046  1.6097
10262WAT      O31187   5.866   5.465   4.193  0.1484  0.1595 -0.0128
10262WAT     H131188   5.839   5.538   4.248  0.4034  0.5129 -0.3474
10262WAT     H231189   5.954   5.442   4.225 -0.2009 -0.4440  0.5312
10263WAT      O31190   3.641   3.708   2.033 -0.4461  0.3124 -0.2358
10263WAT     H131191   3.684   3.733   2.114 -2.4978 -0.6365  1.2495
10263WAT     H231192   3.598   3.788   2.002 -0.5072  0.4463  0.1898
10264WAT      O31193   3.827   3.292   6.101  0.0056 -0.2252  0.2443
10264WAT     H131194   3.742   3.275   6.142  0.7890 -0.5882  1.8094
10264WAT     H231195   3.843   3.215   6.047 -0.2774 -0.5766  0.6492
10265WAT      O31196   7.547   2.583   1.235  0.3667 -0.2568  0.2095
10265WAT     H131197   7.522   2.529   1.310 -0.1527  0.1180  0.3082
10265WAT     H231198   7.610   2.645   1.272  0.8238 -0.6702  0.1348
10266WAT      O31199   6.516   6.350   1.152  0.5125  0.5836 -0.2137
10266WAT     H131200   6.567   6.318   1.226  1.8649 -0.0368 -1.3720
10266WAT     H231201   6.501   6.273   1.098 -0.7837  0.9600 -0.4314
10267WAT      O31202   3.689   3.981   5.061  0.1233  0.0331  0.2812
10267WAT     H131203   3.602   4.012   5.084  0.8485  0.4011  2.7457
10267WAT     H231204   3.681   3.886   5.055 -0.3453  0.0326  0.9492
10268WAT      O31205   1.034   2.933   0.571 -0.4997  0.2081 -0.0414
10268WAT     H131206   1.062   2.975   0.652 -0.3958  1.2138 -0.5849
10268WAT     H231207   1.115   2.918   0.523 -0.4430 -1.4329  0.5054
10269WAT      O31208   3.446   2.823   0.029  0.4239  0.3496  0.4513
10269WAT     H131209   3.454   2.869   0.113  0.2694  1.5124 -0.1590
10269WAT     H231210   3.444   2.892  -0.036  1.7779 -0.5803 -0.6226
10270WAT      O31211   0.918   5.333   4.743 -0.0133  0.4435  0.2662
10270WAT     H131212   0.902   5.254   4.794  0.3806  0.8429  1.0300
10270WAT     H231213   0.983   5.382   4.794  1.4309  0.2343 -1.2855
10271WAT      O31214   2.273   2.393   2.054 -0.0803  0.1465  0.0285
10271WAT     H131215   2.278   2.300   2.078 -1.0645 -0.2462 -1.2183
10271WAT     H231216   2.313   2.397   1.967  4.3647  1.7057  1.8162
10272WAT      O31217   4.570   1.721   6.007  0.1858  0.3579 -0.1881
10272WAT     H131218   4.538   1.642   6.050 -0.5173  0.7305 -0.0160
10272WAT     H231219   4.576   1.697   5.914  2.8884 -0.8372  0.2083
10273WAT      O31220   1.216   5.558   1.865  0.2770 -0.4254  0.7650
10273WAT     H131221   1.144   5.497   1.849  0.6399 -0.9394  1.0873
10273WAT     H231222   1.273   5.513   1.927  0.9777 -0.1073  0.3681
10274WAT      O31223   1.164   5.667   2.267 -0.4070 -0.1146  0.4333
10274WAT     H131224   1.247   5.704   2.238 -1.1092  1.4130  0.2749
10274WAT     H231225   1.186   5.617   2.346  0.7645 -0.3715 -0.0365
10275WAT      O31226   0.606   5.911   3.520  0.4543 -0.3948  0.3104
10275WAT     H131227   0.672   5.977   3.541  0.6832 -1.2907  2.7012
10275WAT     H231228   0.531   5.935   3.574 -0.0063 -1.2331  0.0607
10276WAT      O31229   7.252   5.385   1.187 -0.0391 -0.0899  0.5970
10276WAT     H131230   7.217   5.403   1.274  0.0910  0.6202  0.5109
10276WAT     H231231   7.339   5.350   1.202 -0.3502 -0.8008  0.7773
10277WAT      O31232   2.612   6.224   6.075 -0.3822  0.1014  0.0891
10277WAT     H131233   2.668   6.274   6.135 -0.6711 -0.3383  0.7391
10277WAT     H231234   2.670   6.156   6.040 -0.7070 -0.9004  1.4338
10278WAT      O31235   6.845   3.451   4.777  0.1693  0.8510  0.3597
10278WAT     H131236   6.808   3.444   4.865 -0.2874 -1.4319  0.0425
10278WAT     H231237   6.890   3.367   4.763  0.0660  1.0744 -1.6432
10279WAT      O31238   4.933   1.401   5.559 -0.1948  0.0982 -0.0569
10279WAT     H131239   5.021   1.372   5.582  0.2011  0.7906 -0.6271
10279WAT     H231240   4.927   1.490   5.593  0.3413  1.0890 -2.3202
10280WAT      O31241   2.813   5.601   4.740 -0.3010 -0.1907 -0.8569
10280WAT     H131242   2.875   5.662   4.698 -0.3197  0.0650 -0.5136
10280WAT     H231243   2.850   5.586   4.827 -0.7890  0.0657 -0.6029
10281WAT      O31244   1.488   2.105   2.903  0.1711  0.2500  0.4189
10281WAT     H131245   1.540   2.176   2.867 -1.4835  1.4914  0.3461
10281WAT     H231246   1.419   2.090   2.838  1.1248 -2.2818 -0.1491
10282WAT      O31247   5.153   4.996   5.950  0.2092  0.2900  0.3821
10282WAT     H131248   5.187   4.996   6.040 -0.4858 -0.7315  0.6626
10282WAT     H231249   5.176   4.909   5.916 -0.3928  0.3069 -0.0819
10283WAT      O31250   5.209   2.325   5.876  0.1252 -0.7962 -0.1319
10283WAT     H131251   5.144   2.389   5.845  0.5141 -0.6077 -0.5799
10283WAT     H231252   5.201   2.327   5.971 -0.4584 -0.7019 -0.1807
10284WAT      O31253   3.936   2.687   4.833 -0.0471  0.2059 -0.2098
10284WAT     H131254   3.881   2.764   4.849 -0.3821  0.1174 -0.8969
10284WAT     H231255   4.001   2.717   4.770  0.7952  0.3487  0.7045
10285WAT      O31256   4.498   5.358   3.630 -0.2983  0.1268 -0.5027
10285WAT     H131257   4.424   5.380   3.687 -1.3894  0.0438 -1.8558
10285WAT     H231258   4.493   5.262   3.621  0.2073  0.0787 -0.3020
10286WAT      O31259   2.290   2.750   3.838  0.2374 -0.2450  0.2699
10286WAT     H131260   2.328   2.791   3.760 -0.6093 -1.0482 -0.5882
10286WAT     H231261   2.340   2.786   3.911 -0.2805  2.1014 -0.4512
10287WAT      O31262   7.326   2.537   2.705  0.1688  0.0777 -0.1782
10287WAT     H131263   7.371   2.541   2.790  0.1635  0.5284 -0.1941
10287WAT     H231264   7.251   2.480   2.720  0.4399 -0.2395 -0.0068
10288WAT      O31265   3.945   4.896   2.428  0.1009  0.3097  0.0523
10288WAT     H131266   3.898   4.930   2.351  2.4831  1.0173 -1.1987
10288WAT     H231267   3.887   4.914   2.502 -0.2741  4.1148 -0.9518
10289WAT      O31268   0.988   3.766   0.974 -0.1868  0.4816 -0.2833
10289WAT     H131269   0.932   3.816   1.035  0.6757 -0.9902  1.8345
10289WAT     H231270   0.983   3.676   1.005  1.3169 -0.1204 -1.6460
10290WAT      O31271   2.528   4.674   5.352  0.7871  0.3251  0.1042
10290WAT     H131272   2.586   4.713   5.418  2.3342  0.0261 -1.0248
10290WAT     H231273   2.502   4.590   5.390  1.4609  0.2661  0.4421
10291WAT      O31274   1.530   2.869   6.032  0.5523 -0.1555  0.4541
10291WAT     H131275   1.548   2.820   6.112 -0.5507 -1.8729 -0.3040
10291WAT     H231276   1.443   2.907   6.046  0.3345 -0.5038  0.0549
10292WAT      O31277   0.685   2.570   3.805  0.8048  0.1980 -0.4712
10292WAT     H131278   0.752   2.509   3.775  0.1484 -1.1381  0.6355
10292WAT     H231279   0.604   2.518   3.806 -0.0778  1.4993 -0.8693
10293WAT      O31280   5.172   0.961   5.427 -0.5519  0.4957  0.0418
10293WAT     H131281   5.103   0.985   5.489 -1.0254  0.4086 -0.4397
10293WAT     H231282   5.216   0.886   5.468 -1.7045 -0.4073 -0.2990
10294WAT      O31283   7.320   0.941   5.301 -1.0159  0.2856 -0.1677
10294WAT     H131284   7.243   0.947   5.358 -1.1445  0.8708 -0.3970
10294WAT     H231285   7.387   0.992   5.348 -0.5255 -0.8555  0.4084
10295WAT      O31286   3.558   6.390   5.415  0.4303 -0.1088 -0.6157
10295WAT     H131287   3.572   6.295   5.407 -1.6805 -0.6142  0.7265
10295WAT     H231288   3.624   6.419   5.477  0.5987 -0.8415 -0.4422
10296WAT      O31289   5.793   0.934   5.989  0.0637  0.0566  0.3842
10296WAT     H131290   5.772   0.964   6.077  1.0142 -2.8247  1.6930
10296WAT     H231291   5.760   0.845   5.985  0.0576  0.0980 -2.2056
10297WAT      O31292   4.696   5.141   4.834 -0.1713 -0.3456 -0.1544
10297WAT     H131293   4.777   5.123   4.882  0.0561 -2.7827 -1.3276
10297WAT     H231294   4.664   5.223   4.872  2.2583  0.1252  1.0864
10298WAT      O31295   3.662   4.859   5.126  0.4187 -0.6473 -0.2804
10298WAT     H131296   3.601   4.830   5.194 -0.0152 -1.7995 -1.1309
10298WAT     H231297   3.748   4.836   5.161  0.2019 -1.2033 -0.1004
10299WAT      O31298   6.460   7.049   0.789  0.1744  0.6551 -0.2970
10299WAT     H131299   6.404   7.119   0.756 -0.6476  0.6420  0.9901
10299WAT     H231300   6.515   7.091   0.855 -0.1394  0.1605  0.2929
10300WAT      O31301   4.873   6.860   5.240  0.3801  0.2287  0.4351
10300WAT     H131302   4.845   6.941   5.197  3.1036  1.0854  0.0858
10300WAT     H231303   4.923   6.889   5.315  0.2036 -1.1928  1.1297
10301WAT      O31304   6.083   3.289   5.827 -0.2859  0.4728 -0.0378
10301WAT     H131305   5.990   3.265   5.830  0.1685 -1.5734 -1.0419
10301WAT     H231306   6.123   3.225   5.769  2.0515  0.2919  1.6144
10302WAT      O31307   3.179   0.678   2.990 -0.5830 -0.1260 -0.1096
10302WAT     H131308   3.265   0.681   2.949 -1.1546  0.1255 -1.3258
10302WAT     H231309   3.161   0.585   3.002  0.0463 -0.1679  0.5973
10303WAT      O31310   5.508   6.811   2.624  0.2878 -0.2330  0.4685
10303WAT     H131311   5.555   6.887   2.660  0.3552 -0.5523  1.0720
10303WAT     H231312   5.462   6.774   2.700  0.0039 -0.6096  0.1130
10304WAT      O31313   5.023   0.401   3.243  0.6223 -0.2860  0.3118
10304WAT     H131314   5.023   0.487   3.200 -0.2073 -0.2724  0.3247
10304WAT     H231315   5.114   0.388   3.270  0.7032  0.7015  0.5461
10305WAT      O31316   6.158   4.487   1.548  1.0197 -0.1474 -0.5469
10305WAT     H131317   6.087   4.489   1.613  0.7527 -0.8188 -0.8040
10305WAT     H231318   6.227   4.436   1.590  2.1499  2.1324  0.4698
10306WAT      O31319   5.543   6.099   4.769  0.3408  0.4577  0.4064
10306WAT     H131320   5.555   6.189   4.802  0.6447  1.0779 -1.2530
10306WAT     H231321   5.622   6.053   4.798  0.3516  0.8254  0.9804
10307WAT      O31322   3.752   1.854   5.239  0.5835 -0.3231 -0.5182
10307WAT     H131323   3.802   1.850   5.321  2.8657 -2.9581 -1.8879
10307WAT     H231324   3.664   1.881   5.267  1.4617 -0.2816  2.6597
10308WAT      O31325   6.847   1.045   6.016  0.4563  0.0330 -0.4948
10308WAT     H131326   6.838   1.125   6.067 -0.6266 -0.9608  0.9747
10308WAT     H231327   6.900   1.070   5.940  2.2599  1.5876  1.1505
10309WAT      O31328   0.768   1.115   1.722 -0.3540  0.0410  0.0803
10309WAT     H131329   0.690   1.076   1.761 -1.7139  3.1935  0.8216
10309WAT     H231330   0.792   1.186   1.781  2.6920 -0.2845 -0.5509
10310WAT      O31331   3.441   1.519   0.887  0.2196  0.6058  0.6083
10310WAT     H131332   3.409   1.546   0.973 -2.9644  0.6719 -0.4567
10310WAT     H231333   3.466   1.427   0.898 -3.2602 -0.4484  1.0609
10311WAT      O31334   3.488   2.651   2.460  0.0229 -0.1944 -0.1127
10311WAT     H131335   3.422   2.714   2.488  0.6003  1.5979 -2.5190
10311WAT     H231336   3.447   2.602   2.389  0.6023 -0.4369 -0.2912
10312WAT      O31337   0.363   2.858   5.202 -0.2391  0.0814  0.3624
10312WAT     H131338   0.276   2.869   5.240 -0.6871  0.1870 -0.6541
10312WAT     H231339   0.424   2.875   5.274 -1.0230  2.2036  0.5707
10313WAT      O31340   5.643   0.206   5.605 -0.1102  0.4102 -0.2782
10313WAT     H131341   5.670   0.136   5.545 -0.4094 -1.7109  1.8979
10313WAT     H231342   5.724   0.236   5.645 -0.1483  0.0705  0.0552
10314WAT      O31343   1.228   0.393   0.343 -0.4210  0.1569 -0.0941
10314WAT     H131344   1.182   0.396   0.428  0.3159  0.6341  0.2975
10314WAT     H231345   1.281   0.473   0.342 -0.9690  0.5351 -1.3302
10315WAT      O31346   3.807   5.067   4.292  0.0632 -0.5218 -0.3363
10315WAT     H131347   3.722   5.034   4.264 -0.4970  1.2942 -0.9066
10315WAT     H231348   3.860   4.988   4.305 -1.8146 -1.7293  0.4911
10316WAT      O31349   0.122   1.611   3.629  0.8227 -0.2847  0.5431
10316WAT     H131350   0.138   1.521   3.603  2.4930  0.5611 -1.7735
10316WAT     H231351   0.189   1.630   3.695  2.7358  0.1243 -1.3842
10317WAT      O31352   1.183   4.104   5.162  0.6245  0.0634  0.1116
10317WAT     H131353   1.173   4.038   5.231  1.8660  0.9080  1.1658
10317WAT     H231354   1.094   4.125   5.135  0.1259 -0.6689  1.1200
10318WAT      O31355   4.894   1.231   1.459 -0.2441  0.4866  0.7262
10318WAT     H131356   4.846   1.309   1.487 -0.5512  0.0856  1.3529
10318WAT     H231357   4.897   1.176   1.538  0.1495 -0.0392  0.3469
10319WAT      O31358   5.908   4.814   1.794  0.6284 -0.0157  0.2023
10319WAT     H131359   5.936   4.783   1.708  0.9201 -0.7912  0.5728
10319WAT     H231360   5.876   4.903   1.777  0.1281 -0.3640 -0.8054
10320WAT      O31361   4.812   6.038   5.848 -0.4542  0.2283  0.5866
10320WAT     H131362   4.811   5.952   5.889 -0.7558  0.2805  0.6953
10320WAT     H231363   4.725   6.073   5.865 -0.3815  0.4947  0.4146
10321WAT      O31364   7.641   5.772   2.388  0.3196 -0.6012  0.2900
10321WAT     H131365   7.671   5.816   2.468 -0.7569 -0.4449  0.6129
10321WAT     H231366   7.692   5.691   2.385 -0.6211 -1.2954  1.9077
10322WAT      O31367   5.068   6.475   0.628 -0.6637 -0.5687 -0.3699
10322WAT     H131368   5.061   6.384   0.656  1.7254 -0.2029  1.7546
10322WAT     H231369   5.085   6.524   0.708  1.9870  1.2120 -1.8443
10323WAT      O31370   3.168   0.515   2.210  0.4778  0.1062 -0.4981
10323WAT     H131371   3.162   0.610   2.200  1.9042  0.6160  2.3056
10323WAT     H231372   3.090   0.491   2.260 -0.2651 -0.3514 -1.8471
10324WAT      O31373   1.848   2.816   4.886 -0.2904 -0.4171 -0.3361
10324WAT     H131374   1.862   2.841   4.977  0.3484  0.3451 -0.6310
10324WAT     H231375   1.753   2.817   4.875 -0.3400  0.3956  0.0825
10325WAT      O31376   1.558   3.292   3.551  0.2782 -0.2149 -0.1862
10325WAT     H131377   1.504   3.372   3.551  0.4352 -0.0728 -2.3023
10325WAT     H231378   1.602   3.293   3.636 -0.3092  1.5610  0.1312
10326WAT      O31379   3.051   2.770   0.392 -0.1635  0.3304  0.3603
10326WAT     H131380   2.961   2.802   0.379 -0.0812  0.5402  0.3010
10326WAT     H231381   3.106   2.844   0.369 -0.0089  1.1248  2.9441
10327WAT      O31382   0.514   0.334   2.025 -0.3732  0.2610  0.0006
10327WAT     H131383   0.456   0.397   2.069 -0.2008  1.5077 -1.4613
10327WAT     H231384   0.590   0.386   2.000 -1.4914  0.2853 -3.9124
10328WAT      O31385   5.259   3.482   5.864 -0.0054 -0.2636  0.3716
10328WAT     H131386   5.322   3.546   5.897 -0.8554  0.0662  1.4119
10328WAT     H231387   5.242   3.509   5.773  1.0529 -0.1408  0.1995
10329WAT      O31388   3.772   2.838   6.176  0.1703 -0.6311 -0.0847
10329WAT     H131389   3.718   2.785   6.118  1.0003 -1.3584 -0.2087
10329WAT     H231390   3.804   2.776   6.242  1.1690 -0.2909 -0.2449
10330WAT      O31391   0.133   3.363   2.933 -0.3845 -0.2723  0.1092
10330WAT     H131392   0.131   3.399   3.022  4.0658 -0.4732  0.5244
10330WAT     H231393   0.108   3.437   2.877 -0.1148  0.8248  1.3884
10331WAT      O31394   0.393   1.782   4.945  0.0863 -0.3730 -0.8778
10331WAT     H131395   0.307   1.823   4.933 -0.1429 -0.7799 -0.6600
10331WAT     H231396   0.427   1.821   5.025  0.0003 -0.3822 -0.8363
10332WAT      O31397   3.771   2.817   1.279 -0.1373  0.0386  0.3240
10332WAT     H131398   3.735   2.733   1.251 -0.1936  0.0921  0.2325
10332WAT     H231399   3.844   2.833   1.219 -0.3249  0.2044  0.1327
10333WAT      O31400   6.397   1.478   3.416 -0.5338 -0.4526  0.0190
10333WAT     H131401   6.455   1.552   3.397 -2.5504  1.2140 -0.0446
10333WAT     H231402   6.403   1.466   3.511  0.0145 -0.4111 -0.0074
10334WAT      O31403   1.787   3.700   2.129  0.0921 -0.0044  0.4084
10334WAT     H131404   1.847   3.689   2.203  0.5854  2.1086  0.3789
10334WAT     H231405   1.766   3.793   2.128 -1.0856 -0.2381 -1.2263
10335WAT      O31406   3.989   0.146   3.643 -0.6586 -0.9394  0.2168
10335WAT     H131407   3.921   0.105   3.590 -1.6303  1.4866 -0.5259
10335WAT     H231408   3.964   0.128   3.734 -1.5180 -1.2575 -0.0792
10336WAT      O31409   1.078   5.277   3.222  0.2153  0.0389  0.0258
10336WAT     H131410   1.110   5.318   3.303 -0.6361 -1.8725  1.3889
10336WAT     H231411   0.993   5.240   3.246 -0.6979  0.5631 -2.1380
10337WAT      O31412   7.034   1.994   5.768 -0.1215  0.6688 -0.0050
10337WAT     H131413   7.112   1.969   5.719  1.2307  0.5725  2.1054
10337WAT     H231414   7.048   1.959   5.856 -1.4393  2.6918  1.0880
10338WAT      O31415   3.572   1.732   5.449  0.1758 -0.3565 -0.0935
10338WAT     H131416   3.639   1.688   5.501  1.7489  1.0970 -0.7823
10338WAT     H231417   3.537   1.799   5.508  1.1360  0.5258 -0.4970
10339WAT      O31418   2.491   1.194   6.189  0.1824 -0.3090 -0.8694
10339WAT     H131419   2.539   1.112   6.181  1.4083  0.4436 -1.6479
10339WAT     H231420   2.461   1.213   6.100 -1.1019 -0.4799 -0.4899
10340WAT      O31421   5.197   0.477   4.798 -0.4685  0.4493 -0.1198
10340WAT     H131422   5.143   0.546   4.758 -0.3003 -0.4701 -2.0148
10340WAT     H231423   5.280   0.481   4.752 -0.4483 -1.0013 -0.2610
10341WAT      O31424   6.169   5.198   6.104  0.0530  0.6187  0.5184
10341WAT     H131425   6.088   5.149   6.121  0.1729 -0.0337 -0.6587
10341WAT     H231426   6.168   5.270   6.167 -0.3807 -0.6083  1.9912
10342WAT      O31427   7.282   6.947   0.282 -0.0330 -0.5483  0.2962
10342WAT     H131428   7.238   7.026   0.252 -0.2646 -0.6089  0.4756
10342WAT     H231429   7.367   6.977   0.314  0.7415 -0.6231 -1.5395
10343WAT      O31430   0.812   3.950   3.533 -0.0864  0.0229 -0.4651
10343WAT     H131431   0.803   3.946   3.438 -2.3170 -1.6823 -0.2585
10343WAT     H231432   0.745   4.012   3.561  0.0605 -0.0354  0.0276
10344WAT      O31433   6.495   2.915   1.671  0.3326  0.2473  0.1361
10344WAT     H131434   6.442   2.839   1.648 -0.6901  0.9192  0.1910
10344WAT     H231435   6.574   2.879   1.711  0.3722 -0.8100 -0.8448
10345WAT      O31436   4.520   0.682   5.925  0.0279 -0.2513 -0.2021
10345WAT     H131437   4.559   0.691   6.011  0.9857  0.7474 -0.7187
10345WAT     H231438   4.430   0.713   5.935  0.4782  0.9736  0.1901
10346WAT      O31439   1.434   3.753   2.578  0.2830  0.2573 -0.4550
10346WAT     H131440   1.529   3.741   2.577  0.4576  1.4542 -1.9911
10346WAT     H231441   1.421   3.846   2.596 -0.4532  0.6878 -2.8407
10347WAT      O31442   3.179   4.124   0.276 -0.0284  0.3707  0.1771
10347WAT     H131443   3.267   4.094   0.301  0.6561  1.1718 -1.1700
10347WAT     H231444   3.120   4.063   0.321  1.2002 -0.2219  1.0670
10348WAT      O31445   5.427   4.530   4.652  0.1801  0.8073 -0.6921
10348WAT     H131446   5.420   4.617   4.692  1.6173  0.0475  1.4001
10348WAT     H231447   5.343   4.488   4.673  0.5027  0.7943  0.6919
10349WAT      O31448   3.858   5.582   0.840 -0.0126 -0.1685 -0.7226
10349WAT     H131449   3.777   5.610   0.882  0.8041 -1.1499  1.6792
10349WAT     H231450   3.909   5.542   0.910  1.9450 -0.9255 -2.4647
10350WAT      O31451   1.005   6.712   1.917 -0.7677  0.2093  0.1561
10350WAT     H131452   0.931   6.768   1.938 -1.1235 -0.8772  2.1004
10350WAT     H231453   0.966   6.628   1.892 -0.2244  0.4234 -1.5381
10351WAT      O31454   1.853   6.023   3.168 -0.2458 -0.0298 -0.0556
10351WAT     H131455   1.802   5.963   3.223 -1.6882  1.0097 -0.2310
10351WAT     H231456   1.932   6.041   3.220  0.2289 -2.0145  0.0236
10352WAT      O31457   4.304   2.856   1.204 -0.4117  0.1375 -0.1853
10352WAT     H131458   4.312   2.772   1.160 -2.6952  0.4014 -1.2534
10352WAT     H231459   4.394   2.881   1.225  0.7475 -0.6062 -3.6040
10353WAT      O31460   4.661   4.886   3.877 -0.1009  0.1134 -0.1084
10353WAT     H131461   4.745   4.842   3.866  0.1173  0.5230 -0.1075
10353WAT     H231462   4.658   4.910   3.970 -0.4516 -0.3597  0.0064
10354WAT      O31463   4.808   4.697   4.723 -0.1793 -0.4275  0.1500
10354WAT     H131464   4.899   4.674   4.739  0.3502  2.2101  1.4814
10354WAT     H231465   4.768   4.700   4.810 -0.9886  0.4729 -0.2418
10355WAT      O31466   2.725   7.200   0.426 -0.2501 -0.2903  0.1623
10355WAT     H131467   2.640   7.229   0.458  0.2346  0.5579  0.7223
10355WAT     H231468   2.780   7.196   0.505 -0.0165 -1.7535 -0.0418
10356WAT      O31469   3.664   3.898   4.377  0.5615  0.5100 -0.0254
10356WAT     H131470   3.694   3.810   4.354  0.3791  1.0800 -2.6452
10356WAT     H231471   3.619   3.886   4.461  2.4359 -1.4690  0.7993
10357WAT      O31472   1.176   3.454   4.893 -0.2218 -0.6433  0.3003
10357WAT     H131473   1.203   3.379   4.946  0.4161  0.0282  0.9577
10357WAT     H231474   1.091   3.429   4.858  1.2206 -2.8657 -1.9332
10358WAT      O31475   4.309   2.702   1.588 -0.0462 -0.3938  0.1857
10358WAT     H131476   4.273   2.686   1.676  0.5903 -0.3539  0.4561
10358WAT     H231477   4.243   2.757   1.546 -1.0330 -1.5721  0.1388
10359WAT      O31478   6.003   2.256   1.591  0.3902 -0.0094  0.0937
10359WAT     H131479   6.040   2.186   1.537  0.4633  0.9180 -1.1077
10359WAT     H231480   5.950   2.210   1.656 -0.5560 -1.1722 -1.4054
10360WAT      O31481   4.608   0.875   2.873 -0.1234  0.5804 -0.0941
10360WAT     H131482   4.667   0.811   2.833 -1.1218 -0.3749 -0.0836
10360WAT     H231483   4.593   0.841   2.962 -1.5192  0.2284 -0.4462
10361WAT      O31484   4.971   3.708   3.953 -0.1323  0.7200 -0.5895
10361WAT     H131485   5.023   3.788   3.961 -0.2233  0.7948 -0.7430
10361WAT     H231486   4.976   3.668   4.040  0.8392  0.3130 -0.8185
10362WAT      O31487   0.164   4.123   4.930 -0.3490  0.4654  0.9008
10362WAT     H131488   0.070   4.119   4.946 -0.1898  0.2470  1.8979
10362WAT     H231489   0.188   4.036   4.900 -0.6387  0.8490 -0.5008
10363WAT      O31490   5.867   3.911   0.335 -0.3478  0.0731  0.0547
10363WAT     H131491   5.786   3.958   0.311  0.0739  0.0875 -1.4708
10363WAT     H231492   5.878   3.927   0.428 -2.6883 -0.8189  0.5559
10364WAT      O31493   4.886   5.155   2.818 -0.2807 -0.5774 -0.0185
10364WAT     H131494   4.920   5.182   2.904  0.6533  2.5659 -1.2227
10364WAT     H231495   4.903   5.061   2.815  1.7503 -0.4242  2.3554
10365WAT      O31496   0.562   0.697   0.345 -0.0923 -0.1806 -0.2087
10365WAT     H131497   0.568   0.641   0.423  0.9391 -1.6594 -1.3067
10365WAT     H231498   0.544   0.785   0.380 -1.5140 -1.1163  1.5771
10366WAT      O31499   0.592   3.004   1.252 -0.0861 -0.0966 -0.5409
10366WAT     H131500   0.657   3.074   1.254  0.4853 -0.6213 -0.4676
10366WAT     H231501   0.544   3.013   1.335  0.7175 -0.4724 -0.0288
10367WAT      O31502   1.232   3.362   0.194 -0.1111  0.0757  0.4552
10367WAT     H131503   1.279   3.428   0.246  1.2663 -1.5010  1.3169
10367WAT     H231504   1.211   3.294   0.257  0.3141 -1.2403 -0.7824
10368WAT      O31505   0.099   0.674   3.105 -0.1264  0.4722 -0.2531
10368WAT     H131506   0.022   0.656   3.159 -2.7623  0.1336 -3.8284
10368WAT     H231507   0.132   0.588   3.081  1.1183  0.6227  0.7979
10369WAT      O31508   3.482   2.539   0.361 -0.7843  0.0581  0.0053
10369WAT     H131509   3.543   2.595   0.409  0.1970  0.3610 -1.5233
10369WAT     H231510   3.395   2.570   0.388 -0.2699  0.1117  1.6543
10370WAT      O31511   5.921   6.397   1.633  0.3086 -0.0134  0.1418
10370WAT     H131512   5.966   6.445   1.703 -0.4734  1.4389 -0.3230
10370WAT     H231513   5.878   6.465   1.581  0.4408 -1.0953 -1.4595
10371WAT      O31514   1.910   0.850   4.491  0.0165 -0.4036  0.2687
10371WAT     H131515   1.891   0.796   4.568  2.7800 -1.3630  0.3946
10371WAT     H231516   1.938   0.934   4.526 -1.2779  0.0926  0.1711
10372WAT      O31517   4.494   2.797   1.835  0.1514  0.5543 -0.2026
10372WAT     H131518   4.454   2.714   1.863  1.6532 -0.3455 -0.6213
10372WAT     H231519   4.566   2.810   1.896 -0.3391  1.8232  0.1391
10373WAT      O31520   2.932   6.319   4.080  0.4553  0.0590  0.4217
10373WAT     H131521   2.896   6.324   4.168  0.3277 -0.2438  0.3875
10373WAT     H231522   2.966   6.230   4.073  1.2053  0.3316  0.4532
10374WAT      O31523   4.139   4.349   1.319  0.4635  0.3907  0.2590
10374WAT     H131524   4.205   4.287   1.349  0.3780 -0.6255 -1.5484
10374WAT     H231525   4.067   4.340   1.381  1.2680  0.1879  1.1880
10375WAT      O31526   3.256   0.264   3.734 -0.4026  0.8342  0.2809
10375WAT     H131527   3.255   0.242   3.827  0.4890 -0.6151 -0.0178
10375WAT     H231528   3.170   0.237   3.702 -0.5159  0.8441  0.5712
10376WAT      O31529   1.648   1.752   5.317  0.1137  0.8168 -0.2770
10376WAT     H131530   1.652   1.665   5.357  0.6156  0.8286 -0.2877
10376WAT     H231531   1.635   1.811   5.391  1.1531  0.8477 -0.0992
10377WAT      O31532   2.932   4.105   5.213  0.4761 -0.2530 -0.0309
10377WAT     H131533   2.951   4.196   5.191 -0.4323 -0.0840 -0.1306
10377WAT     H231534   2.846   4.107   5.254  0.0089 -1.1810 -0.9228
10378WAT      O31535   3.265   6.812   0.514 -0.0268  0.0584 -0.4144
10378WAT     H131536   3.248   6.842   0.603  0.4677  0.8150 -0.5651
10378WAT     H231537   3.199   6.857   0.461 -1.0288 -1.2288 -0.3110
10379WAT      O31538   2.764   0.000   3.814  0.1650 -0.1919  0.0610
10379WAT     H131539   2.777   0.063   3.885 -1.7200  0.1871  0.1128
10379WAT     H231540   2.845   0.006   3.763  0.5058  1.4344  0.7056
10380WAT      O31541   3.395   5.430   2.373  0.0328  0.1881  0.3213
10380WAT     H131542   3.362   5.478   2.449 -0.8269  0.6275 -0.3173
10380WAT     H231543   3.417   5.343   2.408  1.6472  1.0149  1.5018
10381WAT      O31544   0.133   3.873   1.367  0.3586 -0.0158  0.1156
10381WAT     H131545   0.211   3.929   1.369 -1.0120  2.0401 -0.6887
10381WAT     H231546   0.083   3.903   1.291 -1.3113 -1.1493  0.6962
10382WAT      O31547   0.162   1.155   5.336  0.0430  0.1340  0.8073
10382WAT     H131548   0.164   1.073   5.287 -0.2288  0.1046  0.8453
10382WAT     H231549   0.183   1.223   5.271 -0.2275  0.0861  0.6681
10383WAT      O31550   2.269   4.789   2.901  0.4091 -0.0139  0.7227
10383WAT     H131551   2.320   4.712   2.926  1.4526  0.3748 -0.1535
10383WAT     H231552   2.204   4.755   2.840  2.7603  0.1533 -2.0965
10384WAT      O31553   4.628   1.946   2.531  0.0114 -0.1154  0.5411
10384WAT     H131554   4.662   1.857   2.541 -1.0814 -0.5051  1.0229
10384WAT     H231555   4.535   1.934   2.512  0.0421  0.9105 -0.3493
10385WAT      O31556   3.057   3.047   2.384 -0.0545 -0.2705 -0.0597
10385WAT     H131557   3.102   3.114   2.435  2.4517 -0.8834 -1.3262
10385WAT     H231558   3.029   3.090   2.304  0.1137 -0.3700 -0.1721
10386WAT      O31559   0.267   1.823   6.020 -0.1710  0.0177 -0.6085
10386WAT     H131560   0.213   1.800   5.945  0.2557  0.8037 -1.1770
10386WAT     H231561   0.204   1.847   6.089 -0.5741 -1.2153 -0.5273
10387WAT      O31562   6.536   0.808   3.551 -0.0717  0.8504  0.4801
10387WAT     H131563   6.629   0.785   3.549 -0.6580 -1.9465  1.3636
10387WAT     H231564   6.526   0.862   3.629  0.5976  0.0389  1.1407
10388WAT      O31565   3.561   4.282   2.655  0.2622 -0.2046 -0.3927
10388WAT     H131566   3.572   4.360   2.709  1.1924 -0.2380 -0.5249
10388WAT     H231567   3.533   4.214   2.717  0.2157  0.0351 -0.1473
10389WAT      O31568   4.952   6.842   2.340  0.1809  0.1922 -0.0303
10389WAT     H131569   4.954   6.755   2.381  0.3621  0.6435  0.9484
10389WAT     H231570   5.029   6.843   2.283  1.8207  0.7007  2.0932
10390WAT      O31571   6.848   5.218   5.781 -0.2106  0.6069 -0.2401
10390WAT     H131572   6.902   5.286   5.821  0.6565 -0.8091  1.0838
10390WAT     H231573   6.761   5.232   5.817  0.0605  0.7645  0.3649
10391WAT      O31574   6.278   2.248   3.266  0.1237 -0.5626  0.1380
10391WAT     H131575   6.188   2.222   3.282 -0.3609  0.2844 -1.1005
10391WAT     H231576   6.312   2.274   3.352 -0.5637 -1.5910  0.7324
10392WAT      O31577   5.788   2.068   1.381 -0.0508 -0.3095  0.6008
10392WAT     H131578   5.849   2.105   1.446 -0.7018  0.6006  0.7130
10392WAT     H231579   5.837   1.997   1.340  1.1091  0.4289  0.6644
10393WAT      O31580   4.708   6.711   2.945 -0.1404 -0.0650 -0.2878
10393WAT     H131581   4.713   6.649   3.018  0.3457 -1.1826 -1.2453
10393WAT     H231582   4.617   6.739   2.943 -0.3795 -0.7967  0.1230
10394WAT      O31583   2.719   0.565   2.993  0.1435  0.4354  0.0793
10394WAT     H131584   2.658   0.558   3.066  0.8363 -0.2377  0.6167
10394WAT     H231585   2.771   0.643   3.012  1.3513 -0.5868  1.1423
10395WAT      O31586   4.006   4.777   3.708  0.1426 -0.4104 -0.5704
10395WAT     H131587   4.031   4.686   3.691 -1.2844 -1.0361  0.4722
10395WAT     H231588   3.988   4.780   3.802  2.2291  1.4959 -0.1507
10396WAT      O31589   1.098   1.875   4.482  0.3703  0.1403 -0.0589
10396WAT     H131590   1.106   1.809   4.551  2.2298  0.6481  0.2544
10396WAT     H231591   1.168   1.938   4.500  0.8181  0.3705 -2.3147
10397WAT      O31592   1.194   5.663   4.772 -0.6081  0.5707  0.1016
10397WAT     H131593   1.239   5.621   4.845 -1.1097 -1.8188 -0.8873
10397WAT     H231594   1.251   5.647   4.697 -1.8796 -0.3470 -0.7080
10398WAT      O31595   0.970   6.207   0.875 -0.0405 -0.0540 -0.2386
10398WAT     H131596   0.997   6.257   0.952 -1.2186 -0.2495  0.3381
10398WAT     H231597   0.920   6.269   0.822 -0.3455 -0.2481 -0.1872
10399WAT      O31598   5.933   3.445   4.533  0.3889 -0.4582 -0.0218
10399WAT     H131599   5.990   3.380   4.574  1.1621  1.8655  2.9955
10399WAT     H231600   5.984   3.527   4.536 -1.1268  0.6737 -2.1934
10400WAT      O31601   3.983   0.564   0.882  0.0079  0.0252  0.6732
10400WAT     H131602   3.996   0.654   0.852  0.0024 -0.4492 -0.8188
10400WAT     H231603   4.072   0.531   0.895  0.0949 -0.3564 -0.7157
10401WAT      O31604   6.697   1.429   5.054 -0.1871 -0.1903 -0.0461
10401WAT     H131605   6.638   1.471   5.116  0.5248  0.6253  0.0946
10401WAT     H231606   6.718   1.344   5.093 -2.2966 -1.0894 -0.7222
10402WAT      O31607   5.307   3.782   4.669  0.3215  0.3212 -0.3882
10402WAT     H131608   5.269   3.837   4.601 -0.8101  0.4464  0.3177
10402WAT     H231609   5.378   3.835   4.706 -0.4465  1.1305 -0.0378
10403WAT      O31610   2.634   1.515   1.180  0.2193 -0.2898 -0.0402
10403WAT     H131611   2.540   1.505   1.191  0.2164  1.5885  2.3906
10403WAT     H231612   2.673   1.471   1.256  1.0599  1.7910  0.8126
10404WAT      O31613   0.394   0.729   0.687 -0.1473 -0.1497 -0.1005
10404WAT     H131614   0.450   0.694   0.757  0.8211  1.6039  0.0565
10404WAT     H231615   0.447   0.797   0.646 -1.7185  0.7244 -0.7549
10405WAT      O31616   2.897   1.032   2.506 -0.3437 -0.0831 -0.1339
10405WAT     H131617   2.923   1.068   2.421  0.1508 -0.5140 -0.1688
10405WAT     H231618   2.965   0.968   2.527  0.0852  0.7311  1.0693
10406WAT      O31619   1.311   6.489   0.743 -0.2561 -0.4199  0.5355
10406WAT     H131620   1.216   6.480   0.750 -0.1392 -0.3894  3.6028
10406WAT     H231621   1.325   6.581   0.721 -0.9297 -0.1827  1.0664
10407WAT      O31622   0.813   6.667   6.154 -0.0957 -0.1147  0.0003
10407WAT     H131623   0.734   6.716   6.178  0.5519 -0.1235  2.4063
10407WAT     H231624   0.812   6.664   6.058 -1.0436  3.1378 -0.1923
10408WAT      O31625   6.367   5.657   1.221 -0.0426 -0.0244  0.5796
10408WAT     H131626   6.306   5.586   1.243 -0.7950  0.1472 -0.8448
10408WAT     H231627   6.329   5.735   1.263 -1.5289  0.3227 -1.2609
10409WAT      O31628   2.371   5.275   4.646 -0.3173 -0.1392  0.2260
10409WAT     H131629   2.412   5.361   4.652  0.6843 -0.6247  0.5502
10409WAT     H231630   2.277   5.292   4.657 -0.2832  1.0545 -1.0542
10410WAT      O31631   0.660   0.512   4.375 -0.1261 -0.0272 -0.3453
10410WAT     H131632   0.637   0.483   4.463 -0.8225  1.4959  0.0202
10410WAT     H231633   0.610   0.593   4.364 -1.2893 -0.9637 -2.7299
10411WAT      O31634   4.038   0.925   0.237  0.0513 -0.2620 -0.0579
10411WAT     H131635   4.111   0.978   0.205 -0.4317  1.3489  1.3465
10411WAT     H231636   3.960   0.970   0.204 -0.3627 -0.4643  0.6433
10412WAT      O31637   3.058   2.382   3.702 -0.2342 -0.1560 -0.1786
10412WAT     H131638   2.973   2.352   3.735  0.6728 -0.8850  1.6488
10412WAT     H231639   3.110   2.302   3.694  0.3614  0.3114 -1.0347
10413WAT      O31640   0.890   1.283   1.988 -0.1100 -0.1289 -0.0443
10413WAT     H131641   0.955   1.348   2.013  0.0755 -0.5815  0.6819
10413WAT     H231642   0.807   1.316   2.023 -0.3125  0.5174 -1.0899
10414WAT      O31643   0.355   0.955   3.933 -0.3359  0.5626  0.4798
10414WAT     H131644   0.281   0.997   3.977 -1.5340 -0.9414  0.0007
10414WAT     H231645   0.431   0.981   3.984 -1.0579  2.8695  0.4871
10415WAT      O31646   5.522   4.463   1.572 -0.0438  0.8540 -0.1029
10415WAT     H131647   5.427   4.448   1.566 -0.0311  1.0908 -0.9497
10415WAT     H231648   5.554   4.455   1.482  0.7603  0.6902  0.1866
10416WAT      O31649   3.924   1.717   2.017  0.5723  0.5173  0.3454
10416WAT     H131650   4.017   1.720   1.995  0.1749  0.5745 -1.4670
10416WAT     H231651   3.912   1.630   2.056  1.0220 -0.3607 -1.3499
10417WAT      O31652   7.116   3.167   3.062  0.3897  0.3788 -0.6098
10417WAT     H131653   7.133   3.180   3.155 -0.8921  0.7692 -0.4203
10417WAT     H231654   7.036   3.216   3.044  0.7037  0.4562 -1.9617
10418WAT      O31655   6.391   6.643   2.274  0.3079 -0.3717  0.7755
10418WAT     H131656   6.462   6.701   2.303  0.4340 -1.7465  3.5166
10418WAT     H231657   6.311   6.691   2.295  0.4088 -0.2682  0.9207
10419WAT      O31658   3.718   5.147   5.148  0.5003 -0.0202 -0.2003
10419WAT     H131659   3.641   5.126   5.202 -1.5644  0.5222 -2.7314
10419WAT     H231660   3.684   5.149   5.059  3.5313  0.1980 -1.4433
10420WAT      O31661   7.124   5.310   5.022 -0.3642 -0.4663  0.1599
10420WAT     H131662   7.060   5.249   5.059 -0.0651 -0.0351  1.4426
10420WAT     H231663   7.198   5.307   5.083  0.8659 -0.9504 -1.2957
10421WAT      O31664   1.584   1.078   5.157  0.1019 -1.1377  0.2278
10421WAT     H131665   1.655   1.127   5.198  0.1064  0.6602 -1.7669
10421WAT     H231666   1.610   1.069   5.065 -1.8626 -1.1028 -0.3910
10422WAT      O31667   6.444   0.369   1.348 -0.2333  0.1376  0.3727
10422WAT     H131668   6.382   0.442   1.356  0.0839  0.5230 -0.5622
10422WAT     H231669   6.476   0.374   1.258  2.3060  0.9061  1.2268
10423WAT      O31670   4.705   6.075   2.416 -0.2059  0.2575 -0.2504
10423WAT     H131671   4.770   6.005   2.421  0.0913  0.5250 -0.3649
10423WAT     H231672   4.648   6.048   2.344  0.0248  0.2284 -0.4256
10424WAT      O31673   4.964   2.382   5.564 -0.0062  0.3152  0.5043
10424WAT     H131674   4.892   2.435   5.528  0.2537  0.3793  0.0649
10424WAT     H231675   5.043   2.432   5.543  0.1234  0.5630  1.5644
10425WAT      O31676   0.161   5.150   3.126  0.3113 -0.9319 -0.2159
10425WAT     H131677   0.072   5.178   3.104 -0.0987 -1.6200  0.5564
10425WAT     H231678   0.205   5.231   3.153 -0.0790 -0.5926 -0.5779
10426WAT      O31679   2.031   3.154   6.233 -0.0199  0.2106  0.2866
10426WAT     H131680   2.110   3.136   6.285  0.9166 -0.7502 -1.3513
10426WAT     H231681   2.043   3.102   6.154 -1.2471  1.8201 -1.0259
10427WAT      O31682   4.773   1.470   3.629 -0.4330  0.0860  0.2210
10427WAT     H131683   4.803   1.548   3.583  0.0341  0.3243  0.9111
10427WAT     H231684   4.854   1.427   3.659 -0.7069 -0.3260  0.3800
10428WAT      O31685   0.460   2.992   0.270  0.5044 -0.1117  0.1765
10428WAT     H131686   0.380   2.942   0.281 -0.0052  0.4573 -0.8804
10428WAT     H231687   0.477   3.029   0.357 -0.1771 -0.5192  0.4912
10429WAT      O31688   0.326   4.617   0.405  0.1656  0.2202  0.6249
10429WAT     H131689   0.266   4.661   0.346  2.1176  0.5795 -1.1998
10429WAT     H231690   0.325   4.670   0.485  0.5947  2.2173 -0.6268
10430WAT      O31691   4.761   6.215   5.310 -0.0718 -0.7634  0.6996
10430WAT     H131692   4.769   6.193   5.402  0.2317 -2.1585  0.3689
10430WAT     H231693   4.693   6.282   5.306 -0.6590 -1.2731  1.8549
10431WAT      O31694   1.985   1.542   2.437 -0.5239 -0.0010  0.0182
10431WAT     H131695   1.958   1.556   2.528 -0.5289 -0.3861  0.0761
10431WAT     H231696   2.080   1.532   2.442 -0.5418 -0.1844  0.0022
10432WAT      O31697   4.338   0.091   3.911  0.1424 -0.4493 -0.0413
10432WAT     H131698   4.374   0.068   3.997 -2.7740 -3.4168  0.5837
10432WAT     H231699   4.254   0.131   3.930 -0.4337 -0.8999 -1.5186
10433WAT      O31700   7.294   3.248   0.043  0.1312  0.2305 -0.6888
10433WAT     H131701   7.347   3.327   0.030 -0.0441  0.1421 -2.1316
10433WAT     H231702   7.214   3.280   0.085 -1.0255  1.3128 -3.4455
10434WAT      O31703   2.728   1.527   2.258 -0.1285 -0.2340  0.0235
10434WAT     H131704   2.697   1.549   2.345 -2.5251  0.6458 -0.9771
10434WAT     H231705   2.701   1.436   2.245 -1.8510  0.3378 -0.6098
10435WAT      O31706   6.477   4.942   2.062  0.0640  0.1860  0.0870
10435WAT     H131707   6.489   4.934   2.156  0.5203  0.6583  0.0714
10435WAT     H231708   6.505   5.031   2.041  0.5574 -0.1146 -0.5803
10436WAT      O31709   4.003   1.679   2.641 -0.1722  0.4009  0.4734
10436WAT     H131710   4.062   1.752   2.662 -0.3488  0.3651  1.1277
10436WAT     H231711   3.949   1.669   2.719 -2.2972  1.5926 -0.7814
10437WAT      O31712   6.572   1.786   0.637 -0.3785 -0.4782  0.1796
10437WAT     H131713   6.665   1.810   0.636  0.2272 -2.6102  0.2793
10437WAT     H231714   6.547   1.792   0.729  0.1681 -1.5500  0.4206
10438WAT      O31715   3.678   2.932   3.653 -0.1753 -0.4543 -0.3761
10438WAT     H131716   3.723   2.857   3.612 -0.5783  0.5198 -2.7705
10438WAT     H231717   3.587   2.905   3.658  0.0250 -0.9529  0.8758
10439WAT      O31718   0.943   2.352   2.986  0.0924  0.0115  0.9609
10439WAT     H131719   1.015   2.402   3.024  0.1114 -0.2450  1.2726
10439WAT     H231720   0.871   2.414   2.979  0.7055  0.6050 -0.5188
10440WAT      O31721   7.363   3.305   2.059 -0.0235  0.4585  0.6288
10440WAT     H131722   7.273   3.283   2.035 -0.1527  2.2382 -0.7309
10440WAT     H231723   7.353   3.369   2.130  0.0808  1.6668 -0.4056
10441WAT      O31724   3.873   6.918   2.485 -0.1508  0.4808  0.1991
10441WAT     H131725   3.842   6.965   2.563 -0.1386  2.7281 -1.0789
10441WAT     H231726   3.960   6.887   2.509 -0.8672 -0.4981  1.6954
10442WAT      O31727   6.183   6.404   5.418 -0.2465 -0.0040  0.3805
10442WAT     H131728   6.238   6.373   5.490 -0.7825 -0.8357  0.4464
10442WAT     H231729   6.160   6.494   5.443 -0.3980 -0.2651  1.2332
10443WAT      O31730   3.419   5.380   4.827 -0.2552 -0.1381  0.1158
10443WAT     H131731   3.398   5.465   4.867 -1.8565  0.3567 -1.6322
10443WAT     H231732   3.335   5.348   4.794  0.5537 -1.7903 -0.4272
10444WAT      O31733   5.291   3.241   0.044  0.1739  0.4875  0.0128
10444WAT     H131734   5.215   3.268  -0.007  0.2224  2.0752  0.6961
10444WAT     H231735   5.254   3.194   0.119  0.0781 -1.4105 -1.1695
10445WAT      O31736   7.411   2.392   4.228  0.3482 -0.0307 -0.2260
10445WAT     H131737   7.480   2.458   4.223 -1.1190  1.6226  0.3371
10445WAT     H231738   7.418   2.356   4.316  1.0413 -0.5458 -0.4770
10446WAT      O31739   4.278   1.972   5.797 -0.1783  0.0877  0.5651
10446WAT     H131740   4.357   2.018   5.823 -0.8141  1.3526  0.3207
10446WAT     H231741   4.310   1.900   5.742  0.7108  1.7526 -1.2139
10447WAT      O31742   4.103   5.346   2.859 -0.4474 -0.4997  0.7501
10447WAT     H131743   4.090   5.251   2.860  0.6480 -0.6815 -0.0705
10447WAT     H231744   4.032   5.379   2.804 -0.3681 -0.9426  0.3686
10448WAT      O31745   2.408   4.244   2.571  0.1339  0.3554 -0.8609
10448WAT     H131746   2.427   4.194   2.491  0.4971 -0.2435 -0.4109
10448WAT     H231747   2.412   4.179   2.641 -1.2760  0.6693 -0.4746
10449WAT      O31748   6.030   7.138   5.946 -0.1515  0.3409 -0.4889
10449WAT     H131749   6.029   7.043   5.961  0.4243  0.5150  0.8311
10449WAT     H231750   6.045   7.176   6.033  0.2269  1.6189 -1.0806
10450WAT      O31751   2.221   0.113   1.822  0.1390  0.3031 -0.0366
10450WAT     H131752   2.213   0.203   1.789 -2.1748  1.5092  3.2473
10450WAT     H231753   2.242   0.123   1.915 -2.3359 -2.4037  0.9783
10451WAT      O31754   2.394   1.284   1.052  0.3234  0.4025  0.7205
10451WAT     H131755   2.341   1.350   1.096 -0.4277 -0.0103  0.4504
10451WAT     H231756   2.463   1.262   1.115 -0.4731  0.1404  1.5135
10452WAT      O31757   0.615   0.585   2.263 -0.2808  0.1204  0.1581
10452WAT     H131758   0.700   0.562   2.226 -0.1225 -0.5868  0.9217
10452WAT     H231759   0.634   0.657   2.324 -0.3690  0.5426 -0.3092
10453WAT      O31760   6.927   0.910   3.383  0.3562 -0.7737  0.0758
10453WAT     H131761   6.866   0.923   3.456  0.5939 -0.5114  0.2276
10453WAT     H231762   6.913   0.819   3.357  0.3506 -0.9053  0.5255
10454WAT      O31763   0.862   7.193   3.409 -0.3259  0.4872  0.2149
10454WAT     H131764   0.848   7.108   3.366  0.3576  0.2888  0.3662
10454WAT     H231765   0.955   7.212   3.395  0.0317  0.2154  1.9301
10455WAT      O31766   5.051   4.086   1.035  0.1745  0.1075  0.1789
10455WAT     H131767   5.117   4.093   1.104  0.2162 -1.2498  0.2956
10455WAT     H231768   4.972   4.125   1.074  0.4604  0.2508  0.6245
10456WAT      O31769   0.860   0.048   5.673 -0.6305 -0.1111  0.3621
10456WAT     H131770   0.899   0.132   5.699 -0.6416  0.3738 -1.0962
10456WAT     H231771   0.931  -0.015   5.681 -0.1122  0.3805 -0.2401
10457WAT      O31772   3.255   6.139   5.710 -0.4068 -0.1404 -0.4563
10457WAT     H131773   3.348   6.159   5.700 -0.5184  0.4703 -0.3054
10457WAT     H231774   3.226   6.194   5.783 -0.9195 -0.2179 -0.5963
10458WAT      O31775   0.186   6.697   5.025 -0.6841 -0.8298 -0.1164
10458WAT     H131776   0.254   6.761   5.003  0.5573 -1.9434  0.3784
10458WAT     H231777   0.114   6.750   5.060 -0.5267  0.4700 -1.6517
10459WAT      O31778   6.339   3.952   5.940 -0.4117 -0.2567 -0.5996
10459WAT     H131779   6.276   3.989   6.002 -0.8291 -2.2816  0.2610
10459WAT     H231780   6.422   3.952   5.986 -0.3132  0.0350 -0.7746
10460WAT      O31781   7.399   0.351   3.003 -0.5170 -0.2822  0.5717
10460WAT     H131782   7.321   0.309   3.038  0.0588 -1.1627  0.8557
10460WAT     H231783   7.419   0.302   2.923 -0.3785  0.0769  0.3830
10461WAT      O31784   3.545   4.003   3.360 -0.7128 -0.2733  0.2861
10461WAT     H131785   3.526   4.076   3.301  1.0567  0.6074  0.7153
10461WAT     H231786   3.497   3.929   3.323 -0.8116  0.5878 -1.4346
10462WAT      O31787   3.581   4.182   4.378  0.2019 -0.2093 -0.3515
10462WAT     H131788   3.500   4.180   4.429 -0.2016  0.3951 -0.9442
10462WAT     H231789   3.634   4.110   4.413  0.9568  1.6042  2.5049
10463WAT      O31790   0.232   5.063   6.027  0.5526  0.2205 -0.3036
10463WAT     H131791   0.183   5.129   6.077  0.7828  2.1983 -2.5026
10463WAT     H231792   0.314   5.054   6.076  1.3393  3.0909 -0.8737
10464WAT      O31793   4.704   1.963   0.716 -0.2100 -0.0074  0.3481
10464WAT     H131794   4.650   1.886   0.727 -2.1330  1.2002 -0.1264
10464WAT     H231795   4.683   2.019   0.791 -0.6763  1.0402 -0.5224
10465WAT      O31796   2.109   0.870   5.282  0.3115  0.4249  0.7712
10465WAT     H131797   2.181   0.848   5.222  0.5148  0.3811  1.0303
10465WAT     H231798   2.042   0.804   5.265 -0.3481  1.4098 -0.6311
10466WAT      O31799   6.208   5.991   0.006 -0.5653 -0.6094  0.2775
10466WAT     H131800   6.122   6.033   0.008 -1.0093 -1.5081  0.8448
10466WAT     H231801   6.261   6.047  -0.051 -0.9821  0.9937  1.3949
10467WAT      O31802   3.514   3.394   4.877 -0.0694 -0.0044  0.1661
10467WAT     H131803   3.465   3.415   4.957  2.3023  0.2596  1.6330
10467WAT     H231804   3.543   3.479   4.845  0.2576 -0.2313 -0.1371
10468WAT      O31805   0.394   2.658   2.567 -0.1162 -0.0104  0.2935
10468WAT     H131806   0.411   2.620   2.653 -1.3846  0.6400  0.8686
10468WAT     H231807   0.300   2.674   2.567 -0.1839 -0.2372 -1.3307
10469WAT      O31808   6.623   0.564   0.890  0.4752 -0.1674  0.4355
10469WAT     H131809   6.648   0.652   0.917 -0.0481  0.4936 -1.0725
10469WAT     H231810   6.537   0.576   0.849  0.9545 -1.1397 -0.9379
10470WAT      O31811   0.024   4.125   4.067 -0.2174  0.1981  0.2090
10470WAT     H131812   0.076   4.188   4.118  0.0069  1.0410 -1.0200
10470WAT     H231813  -0.065   4.136   4.100  0.1397 -0.3102  1.4152
10471WAT      O31814   0.109   6.253   2.626 -0.1608  0.3628 -0.0271
10471WAT     H131815   0.196   6.288   2.612 -0.6225  1.7606  0.4916
10471WAT     H231816   0.052   6.307   2.571 -0.8092  0.0129  0.2873
10472WAT      O31817   7.070   5.834   5.210  0.0974  0.1806 -0.1886
10472WAT     H131818   7.019   5.784   5.146  1.5124 -1.6778  0.0486
10472WAT     H231819   7.025   5.821   5.293  0.1621 -0.3179 -0.2239
10473WAT      O31820   2.313   5.055   6.030 -0.6175 -0.5052 -0.2767
10473WAT     H131821   2.349   4.966   6.029 -0.1088 -0.3051 -0.4897
10473WAT     H231822   2.235   5.050   6.085 -0.2350 -0.9454  0.2307
10474WAT      O31823   3.205   1.807   5.890  0.2545 -0.4804 -0.0212
10474WAT     H131824   3.240   1.744   5.827 -0.3604 -0.4542 -0.4111
10474WAT     H231825   3.129   1.762   5.928  1.1521 -0.8418  1.3767
10475WAT      O31826   3.372   6.203   3.197 -0.6005  0.4160 -0.2384
10475WAT     H131827   3.456   6.247   3.205 -0.7143  0.6287 -0.1956
10475WAT     H231828   3.314   6.251   3.256 -0.8799  0.5962 -0.6514
10476WAT      O31829   2.971   0.153   0.500 -0.6122  0.0136  0.1645
10476WAT     H131830   2.945   0.141   0.409 -1.5352 -0.6329  0.4992
10476WAT     H231831   3.065   0.170   0.496 -0.5670 -0.4077 -0.8760
10477WAT      O31832   2.219   2.221   4.728 -0.5321 -0.2261 -0.0900
10477WAT     H131833   2.195   2.129   4.725  0.8601 -0.6192  0.4063
10477WAT     H231834   2.219   2.243   4.821  2.1166 -0.5691  0.0524
10478WAT      O31835   4.796   0.706   1.111 -0.4619  0.2965  0.4688
10478WAT     H131836   4.714   0.663   1.135 -0.5327 -0.4414 -1.0112
10478WAT     H231837   4.842   0.642   1.057  0.3411  1.3254 -0.1062
10479WAT      O31838   1.137   3.619   0.066 -0.4849 -0.5718  0.0031
10479WAT     H131839   1.081   3.634   0.142 -0.9739 -1.4400 -0.1644
10479WAT     H231840   1.147   3.524   0.062  2.0682 -0.3963  0.7454
10480WAT      O31841   3.972   5.769   0.689  0.2436  0.4360 -0.0892
10480WAT     H131842   3.949   5.681   0.719  1.1345 -0.1698 -1.1219
10480WAT     H231843   3.907   5.826   0.731 -1.4491 -0.8984 -0.7605
10481WAT      O31844   5.933   3.559   2.323 -0.0043 -0.0861  0.1960
10481WAT     H131845   5.910   3.623   2.391 -1.5134 -0.3934  0.0237
10481WAT     H231846   6.003   3.507   2.361 -0.2008  0.3378  1.1569
10482WAT      O31847   1.766   1.748   1.108 -0.7822  0.0197  0.7130
10482WAT     H131848   1.702   1.678   1.116 -0.5503 -0.4827 -1.3304
10482WAT     H231849   1.782   1.776   1.198 -2.0291 -1.4854  1.4521
10483WAT      O31850   3.626   2.604   3.709 -0.4607 -0.2424  0.5532
10483WAT     H131851   3.678   2.527   3.734 -1.4396 -0.8851  0.7038
10483WAT     H231852   3.599   2.643   3.792 -0.6760 -0.2430  0.4849
10484WAT      O31853   0.621   0.111   4.716  0.1285 -0.2248 -0.3385
10484WAT     H131854   0.583   0.080   4.799 -0.6554  0.5405 -0.3834
10484WAT     H231855   0.546   0.114   4.656  0.3723  0.7482 -0.6081
10485WAT      O31856   5.003   1.287   3.386 -0.3424 -0.5021  0.1089
10485WAT     H131857   4.979   1.317   3.474 -2.7471  1.1244 -1.0018
10485WAT     H231858   4.957   1.203   3.376  1.1797 -1.4799  0.8861
10486WAT      O31859   5.154   4.345   3.992  0.4569  0.2227 -0.4868
10486WAT     H131860   5.065   4.308   3.998  1.2497 -1.7101  0.3042
10486WAT     H231861   5.178   4.363   4.083  1.0532  0.2556 -0.6470
10487WAT      O31862   1.459   4.476   3.758  0.0808  0.9694 -0.6648
10487WAT     H131863   1.443   4.550   3.816  2.0628  0.6049  0.4422
10487WAT     H231864   1.507   4.513   3.684 -0.8781  1.1444 -1.2024
10488WAT      O31865   2.923   6.598   0.254  0.7531  0.2995 -0.6132
10488WAT     H131866   2.838   6.631   0.225 -0.3537 -1.4252  0.4740
10488WAT     H231867   2.987   6.659   0.216 -0.9127  1.2951 -1.9666
10489WAT      O31868   1.891   4.883   3.953  0.4652  0.4031 -0.2808
10489WAT     H131869   1.955   4.872   3.883  0.3272 -0.5894 -0.2705
10489WAT     H231870   1.892   4.799   4.000  0.8053  1.1585  1.1310
10490WAT      O31871   1.419   0.657   1.060 -0.2761  0.1987 -0.3958
10490WAT     H131872   1.419   0.566   1.089 -0.0524  0.8883  2.0258
10490WAT     H231873   1.454   0.655   0.971 -1.2643 -2.1583 -0.7821
10491WAT      O31874   4.460   7.161   5.772 -0.8224  0.0144 -1.4112
10491WAT     H131875   4.392   7.094   5.764 -0.3241 -1.0907  2.0720
10491WAT     H231876   4.412   7.240   5.796 -1.0588 -0.2713 -0.9177
10492WAT      O31877   5.887   1.454   5.698 -0.2066 -0.3118  0.1650
10492WAT     H131878   5.931   1.539   5.695 -1.5782  0.3992 -0.6147
10492WAT     H231879   5.955   1.393   5.727  1.0016  0.9116  0.0006
10493WAT      O31880   3.193   2.118   4.845 -0.1071 -0.1210 -0.0731
10493WAT     H131881   3.255   2.165   4.790 -1.6316  1.4796 -0.5323
10493WAT     H231882   3.230   2.123   4.933  0.1115  1.3987 -0.2214
10494WAT      O31883   7.214   6.694   5.335 -0.0788  0.1855 -0.2953
10494WAT     H131884   7.148   6.665   5.398  1.4694 -0.4018  1.1423
10494WAT     H231885   7.210   6.629   5.264 -0.9618  0.1122 -0.1914
10495WAT      O31886   0.337   0.862   1.713  0.7280 -0.3802 -0.3977
10495WAT     H131887   0.334   0.957   1.700  0.3248 -0.5588 -1.8289
10495WAT     H231888   0.324   0.850   1.807  0.9545  0.9793 -0.1674
10496WAT      O31889   5.840   1.334   4.865  0.0443  0.2442 -0.1528
10496WAT     H131890   5.916   1.393   4.865 -0.8137  1.4346  1.3597
10496WAT     H231891   5.797   1.349   4.781  0.4322  0.9915 -0.2236
10497WAT      O31892   6.484   4.014   1.304 -0.3398 -0.3795  0.0685
10497WAT     H131893   6.452   4.104   1.310 -0.2577 -0.2241 -1.4478
10497WAT     H231894   6.408   3.964   1.273 -0.4892 -0.9186  1.2379
10498WAT      O31895   1.154   6.486   3.600 -0.8418  0.0583 -0.1255
10498WAT     H131896   1.125   6.487   3.508 -0.9393 -3.6120 -0.2898
10498WAT     H231897   1.072   6.485   3.650 -0.7960  0.9723 -0.0152
10499WAT      O31898   0.747   3.660   2.752  0.2898 -0.1531  0.1310
10499WAT     H131899   0.785   3.712   2.822  3.5933  0.1235 -1.6711
10499WAT     H231900   0.802   3.582   2.746 -0.0361 -0.2851 -1.9720
10500WAT      O31901   6.630   3.614   0.848 -0.0473 -0.3357 -0.5606
10500WAT     H131902   6.651   3.640   0.937  0.4000 -1.7126 -0.2303
10500WAT     H231903   6.553   3.558   0.857  0.4048 -1.0367 -0.9409
10501WAT      O31904   7.646   2.277   2.716 -0.2226 -0.0050  0.2263
10501WAT     H131905   7.581   2.235   2.773  0.1542 -1.2200 -0.2103
10501WAT     H231906   7.710   2.315   2.776 -0.6229  0.0363  0.6324
10502WAT      O31907   3.106   3.175   4.330  0.0599 -0.5666 -0.2420
10502WAT     H131908   3.142   3.214   4.250 -0.4183  1.7972  0.6141
10502WAT     H231909   3.131   3.235   4.400 -1.6202 -1.2593  1.0301
10503WAT      O31910   5.198   2.630   3.641 -0.0512  0.2439 -0.3245
10503WAT     H131911   5.134   2.641   3.572 -0.2848  1.6907  0.0841
10503WAT     H231912   5.152   2.584   3.711 -1.2100  2.6636  0.6167
10504WAT      O31913   1.609   4.819   4.804 -0.1368  0.4869 -0.1593
10504WAT     H131914   1.698   4.845   4.778 -0.0414  0.7349  0.3952
10504WAT     H231915   1.615   4.804   4.898 -0.0882 -2.0307 -0.5123
10505WAT      O31916   4.224   2.267   2.350 -0.1478  0.4210  0.3425
10505WAT     H131917   4.219   2.351   2.396 -0.3568  0.7703 -0.3095
10505WAT     H231918   4.308   2.230   2.378  0.5072  1.3928 -0.2857
10506WAT      O31919   4.309   6.227   1.221  0.4997 -0.3645  0.1485
10506WAT     H131920   4.280   6.317   1.206 -0.7028 -0.6871  0.4350
10506WAT     H231921   4.266   6.200   1.302 -0.5719 -1.7681 -0.8286
10507WAT      O31922   0.786   5.083   1.877  0.1278 -0.5604  0.8516
10507WAT     H131923   0.770   5.151   1.942 -0.4566 -0.0803  0.2239
10507WAT     H231924   0.790   5.002   1.928  0.5557 -0.0934  1.5750
10508WAT      O31925   2.368   6.933   3.397 -0.2905 -0.2472  0.4296
10508WAT     H131926   2.308   6.999   3.433 -0.6363 -0.7017  0.6880
10508WAT     H231927   2.399   6.971   3.314  0.4596  0.7760  1.1540
10509WAT      O31928   5.357   5.024   1.702  0.3381  0.1613  0.0518
10509WAT     H131929   5.365   5.118   1.690 -1.1823  0.1165 -1.8708
10509WAT     H231930   5.262   5.007   1.700  0.4100 -1.1682  2.8519
10510WAT      O31931   4.538   2.694   4.364 -0.1210  0.0103  0.5019
10510WAT     H131932   4.493   2.757   4.420 -0.5957 -1.3615  1.7123
10510WAT     H231933   4.482   2.688   4.286 -0.3767  0.6374  0.6286
10511WAT      O31934   0.235   3.629   2.291  0.1962 -0.1935  0.2620
10511WAT     H131935   0.144   3.601   2.298  0.0476  0.2931  0.3222
10511WAT     H231936   0.286   3.549   2.305 -0.2252 -0.5406 -0.1643
10512WAT      O31937   3.305   6.845   4.833 -0.1342  0.5740 -0.0493
10512WAT     H131938   3.322   6.936   4.808 -0.4189  0.9841  1.2237
10512WAT     H231939   3.346   6.835   4.919 -0.7069 -0.3016  0.1350
10513WAT      O31940   7.396   0.107   2.223  0.1712  0.1256  0.2794
10513WAT     H131941   7.451   0.102   2.145  0.4996 -0.9526  0.5763
10513WAT     H231942   7.446   0.064   2.292 -1.4536 -1.8762  0.2941
10514WAT      O31943   3.349   2.201   5.437  0.2895  0.7481 -0.6362
10514WAT     H131944   3.255   2.213   5.429  0.2179  0.0489 -0.8744
10514WAT     H231945   3.362   2.173   5.528  0.2353  0.5090 -0.7033
10515WAT      O31946   6.385   3.926   2.357 -0.2291  0.8431 -0.1084
10515WAT     H131947   6.386   3.980   2.278  1.7420  0.5867 -0.3260
10515WAT     H231948   6.443   3.852   2.336 -1.2576 -0.2920  0.8857
10516WAT      O31949   6.419   5.772   4.092 -0.3514 -0.2018 -0.4071
10516WAT     H131950   6.328   5.769   4.124 -1.1494 -1.2008 -2.5602
10516WAT     H231951   6.436   5.865   4.078 -1.3265 -0.0521 -0.6852
10517WAT      O31952   6.964   0.931   2.395  0.3150  0.3691  0.1444
10517WAT     H131953   6.891   0.897   2.344  0.9000 -0.3618 -0.2363
10517WAT     H231954   6.941   0.912   2.485  0.6359 -1.1151 -0.0593
10518WAT      O31955   3.806   6.477   3.951 -0.0854  0.1038 -0.0314
10518WAT     H131956   3.719   6.484   3.913 -0.2525 -0.7956  0.1575
10518WAT     H231957   3.804   6.532   4.028 -0.7524 -0.5505  0.4280
10519WAT      O31958   0.921   5.588   5.366  0.0165 -0.0149  0.1784
10519WAT     H131959   0.984   5.604   5.436  0.3012 -0.8209  0.1227
10519WAT     H231960   0.942   5.500   5.335 -1.1260 -0.2980  0.1553
10520WAT      O31961   5.602   5.561   3.878  0.0974  1.1743 -0.8552
10520WAT     H131962   5.531   5.563   3.943  0.8362  3.3214 -0.0003
10520WAT     H231963   5.656   5.486   3.904 -0.9995  0.4516 -0.5779
10521WAT      O31964   3.041   5.981   6.058 -0.4376  0.0562  0.5961
10521WAT     H131965   3.128   5.969   6.095 -1.4563 -0.3519  3.0420
10521WAT     H231966   3.028   5.906   6.001  1.4458  1.0480 -1.2887
10522WAT      O31967   2.266   0.334   3.636 -0.1221 -0.4492  0.2402
10522WAT     H131968   2.335   0.400   3.629  0.0493 -0.6172  0.3146
10522WAT     H231969   2.208   0.366   3.705  0.0140 -0.4245  0.3438
10523WAT      O31970   0.668   5.530   0.047 -0.4255 -0.4705 -0.6930
10523WAT     H131971   0.676   5.623   0.072  1.6859 -0.8525  0.3071
10523WAT     H231972   0.636   5.487   0.126  0.8365 -0.8798 -0.3738
10524WAT      O31973   3.457   6.030   4.918  0.3475 -0.3946 -0.5994
10524WAT     H131974   3.463   6.064   5.007 -2.3419 -0.5748 -0.2800
10524WAT     H231975   3.477   5.936   4.927 -1.0699 -0.6498  0.0326
10525WAT      O31976   0.252   5.378   1.104 -0.1975 -0.3686  0.1259
10525WAT     H131977   0.215   5.298   1.143  1.7658 -1.5634 -0.3225
10525WAT     H231978   0.286   5.427   1.179 -1.1661 -0.0613  0.3780
10526WAT      O31979   4.810   2.987   0.512  0.3331  0.2537  0.2365
10526WAT     H131980   4.900   2.974   0.542  0.5043 -2.1229 -1.0362
10526WAT     H231981   4.818   3.020   0.423  0.0581 -1.8337 -0.6233
10527WAT      O31982   1.045   2.573   5.714 -0.5340 -0.7522  0.6247
10527WAT     H131983   1.065   2.525   5.793  1.1650  1.3963  1.6289
10527WAT     H231984   0.980   2.638   5.740  0.1658  0.0888  0.3310
10528WAT      O31985   7.252   3.278   4.700 -0.3887 -0.1479  0.2280
10528WAT     H131986   7.227   3.269   4.609  1.5228 -1.7065 -0.2121
10528WAT     H231987   7.227   3.195   4.741  2.3338 -1.1145  0.1256
10529WAT      O31988   4.230   6.488   5.338  0.5033  0.1612 -0.3604
10529WAT     H131989   4.254   6.430   5.266  1.6220 -1.3499  1.1446
10529WAT     H231990   4.159   6.442   5.383  1.5484 -0.2108  0.9778
10530WAT      O31991   6.723   5.352   5.342  0.7380  0.3646  0.0019
10530WAT     H131992   6.650   5.332   5.401  0.7032  0.5525  0.0233
10530WAT     H231993   6.747   5.267   5.304 -0.1857  0.4357 -0.8033
10531WAT      O31994   1.793   2.188   4.644 -0.5260  0.3677 -0.2113
10531WAT     H131995   1.806   2.250   4.716  0.0058 -0.5220  0.4988
10531WAT     H231996   1.759   2.109   4.687 -1.1050  0.1347 -1.0718
10532WAT      O31997   3.386   1.627   0.475  0.1904 -0.3748  0.3139
10532WAT     H131998   3.452   1.560   0.457 -0.5532 -0.9898 -0.2099
10532WAT     H231999   3.436   1.704   0.502  1.0958 -0.9325  0.2658
10533WAT      O32000   6.713   2.020   3.177  0.6187 -0.3527  0.1863
10533WAT     H132001   6.692   1.930   3.202 -0.6924 -0.1048  0.0505
10533WAT     H232002   6.629   2.067   3.181  1.2083  0.7791 -0.1101
10534WAT      O32003   6.363   0.183   4.213  0.4518  0.0002  0.4694
10534WAT     H132004   6.396   0.150   4.296 -0.6067 -0.8909  0.5601
10534WAT     H232005   6.378   0.278   4.217 -1.2393  0.2375  2.4793
10535WAT      O32006   6.297   0.037   1.892 -0.3042 -0.0986  0.1350
10535WAT     H132007   6.204   0.057   1.894 -0.4516 -0.7190 -0.1565
10535WAT     H232008   6.313  -0.008   1.975 -0.4387 -0.6944 -0.1540
10536WAT      O32009   6.500   5.242   2.030 -0.0647 -0.2435 -0.0996
10536WAT     H132010   6.463   5.314   1.979 -0.3238 -0.2637  0.0602
10536WAT     H232011   6.432   5.219   2.093 -0.5661 -1.5976 -1.0953
10537WAT      O32012   7.482   4.934   3.626  0.8551 -0.4199  0.4556
10537WAT     H132013   7.411   4.869   3.633  0.0757  0.1948 -1.2843
10537WAT     H232014   7.514   4.943   3.716 -1.0348 -0.9946  1.2495
10538WAT      O32015   0.179   7.186   4.121  0.4466  0.4542  0.5591
10538WAT     H132016   0.158   7.278   4.135  0.1960  0.3701  0.7603
10538WAT     H232017   0.273   7.184   4.105  0.4242  0.7617  0.3918
10539WAT      O32018   5.594   2.708   0.607 -0.4056  0.0130  0.0959
10539WAT     H132019   5.603   2.793   0.650  0.2343  0.8808 -1.6620
10539WAT     H232020   5.683   2.676   0.598 -0.3128  0.6461 -1.9876
10540WAT      O32021   2.923   7.192   1.552  0.0315  0.0627  0.4898
10540WAT     H132022   2.968   7.234   1.625 -0.2066  2.2956 -0.5741
10540WAT     H232023   2.966   7.228   1.474  0.9010 -2.9293 -0.5588
10541WAT      O32024   0.777   3.610   0.769 -0.5611 -0.0447 -0.0484
10541WAT     H132025   0.766   3.623   0.863 -1.0482  0.9930 -0.2271
10541WAT     H232026   0.839   3.679   0.743  0.4117 -1.0045 -0.3182
10542WAT      O32027   2.683   2.596   0.428 -0.2482  0.4664  0.4639
10542WAT     H132028   2.638   2.551   0.500  1.8027 -2.4099  0.1219
10542WAT     H232029   2.770   2.556   0.425  0.5079  2.0664 -2.2194
10543WAT      O32030   5.855   0.975   3.846 -0.1110  0.2573  0.2063
10543WAT     H132031   5.900   0.913   3.903 -0.5660 -0.0927  0.1896
10543WAT     H232032   5.871   0.941   3.758 -1.0263 -0.2823  0.2452
10544WAT      O32033   2.122   0.461   3.836 -0.2868  0.0619  0.2523
10544WAT     H132034   2.059   0.416   3.891  0.3497  0.1802  1.0937
10544WAT     H232035   2.073   0.484   3.757 -0.9317 -1.0387  0.3107
10545WAT      O32036   4.261   4.790   5.903 -0.0996 -0.4609 -0.3156
10545WAT     H132037   4.256   4.841   5.821  1.3171 -1.8220 -1.3009
10545WAT     H232038   4.177   4.745   5.908 -0.8195  0.8514 -0.1637
10546WAT      O32039   2.575   4.320   3.324  0.0156  0.1878  0.2419
10546WAT     H132040   2.522   4.246   3.293  0.3263  0.1353 -0.1864
10546WAT     H232041   2.627   4.345   3.247 -0.3427  1.0778  0.2809
10547WAT      O32042   6.451   5.363   2.910 -0.2718 -0.2315  0.2607
10547WAT     H132043   6.393   5.399   2.978  2.0914  0.8409  1.8715
10547WAT     H232044   6.449   5.428   2.840 -0.1097  0.3997  0.8312
10548WAT      O32045   2.444   7.168   5.195  0.1265  0.4427 -0.4060
10548WAT     H132046   2.353   7.169   5.166 -1.0248  3.7939  2.6146
10548WAT     H232047   2.439   7.157   5.290  2.8238  1.4002 -0.0650
10549WAT      O32048   6.492   1.553   4.159  0.2006 -0.8500 -0.6725
10549WAT     H132049   6.417   1.606   4.183  0.0085 -0.1291 -2.6776
10549WAT     H232050   6.456   1.465   4.146 -0.0605 -0.7912 -0.3359
10550WAT      O32051   1.394   5.319   4.350 -0.4916  0.0428 -0.6948
10550WAT     H132052   1.430   5.233   4.371  0.7276  0.4876 -0.9045
10550WAT     H232053   1.469   5.378   4.357 -0.9336  0.8219 -2.2598
10551WAT      O32054   5.321   0.427   3.338 -0.3464 -0.4774  0.2512
10551WAT     H132055   5.293   0.428   3.430 -0.1166  0.1101  0.3166
10551WAT     H232056   5.315   0.335   3.313 -0.2063 -0.6783  0.9185
10552WAT      O32057   0.869   1.702   0.982  0.1896 -0.4653 -0.0290
10552WAT     H132058   0.887   1.651   1.061  1.1941  1.9411  1.3952
10552WAT     H232059   0.797   1.760   1.005  0.8693  0.6755 -0.6540
10553WAT      O32060   0.784   6.331   3.471  0.2023  0.1148 -0.0338
10553WAT     H132061   0.761   6.422   3.489  2.7440  0.5395  1.4695
10553WAT     H232062   0.829   6.334   3.386 -1.2418 -0.0638 -0.8411
10554WAT      O32063   3.895   5.031   3.192  0.3477  0.1502 -0.0092
10554WAT     H132064   3.901   5.033   3.288  0.2469 -1.9857  0.0959
10554WAT     H232065   3.834   4.959   3.174  0.6931  0.2500 -1.6846
10555WAT      O32066   6.625   4.844   4.806 -0.3735 -0.3096  0.2548
10555WAT     H132067   6.541   4.861   4.848 -0.7347  2.2969 -1.2614
10555WAT     H232068   6.687   4.835   4.879 -1.6958 -0.7162  1.3625
10556WAT      O32069   5.801   1.872   0.865 -0.2467 -0.1772  0.0820
10556WAT     H132070   5.847   1.788   0.863  0.9833  0.3072  3.3874
10556WAT     H232071   5.739   1.866   0.792  1.5897 -2.8560 -1.4373
10557WAT      O32072   4.347   3.722   4.850  0.1070  0.6115  0.2916
10557WAT     H132073   4.318   3.802   4.893 -0.4038  0.1472  0.8409
10557WAT     H232074   4.377   3.665   4.921 -1.2673 -0.3772  0.1318
10558WAT      O32075   3.698   0.509   2.587 -0.0265 -0.3528  0.3162
10558WAT     H132076   3.765   0.560   2.632 -0.3595 -0.4394  0.9188
10558WAT     H232077   3.640   0.576   2.549  0.0701 -0.2792  0.2974
10559WAT      O32078   0.293   3.025   3.863  0.4411 -0.5817 -0.1839
10559WAT     H132079   0.356   2.954   3.851 -1.1534 -2.5036  1.8734
10559WAT     H232080   0.219   2.984   3.908 -0.4449  2.4701  1.4225
10560WAT      O32081   2.081   0.279   4.717  0.2594  0.5538 -0.1249
10560WAT     H132082   2.034   0.212   4.667  0.1703  1.2965 -1.0513
10560WAT     H232083   2.167   0.239   4.735 -0.6187 -0.7506  1.4607
10561WAT      O32084   1.491   0.722   2.219 -0.0705 -0.0991  0.1424
10561WAT     H132085   1.465   0.762   2.302 -1.9025  0.7664 -0.7919
10561WAT     H232086   1.417   0.737   2.161  0.9980 -1.0526 -1.5496
10562WAT      O32087   6.058   5.483   0.608 -0.4112  0.0397 -0.7437
10562WAT     H132088   6.049   5.403   0.556 -2.0744  0.2017 -0.7796
10562WAT     H232089   6.102   5.545   0.549  1.5011 -1.0085 -0.4795
10563WAT      O32090   4.075   4.364   0.349 -0.8895  0.1719 -1.0086
10563WAT     H132091   3.981   4.380   0.347 -0.7257  1.3605 -0.2126
10563WAT     H232092   4.113   4.444   0.386  0.2221 -1.1811  1.0179
10564WAT      O32093   3.674   4.007   3.827  0.4883 -0.2355 -0.3586
10564WAT     H132094   3.633   3.954   3.895 -0.5375  0.3354 -0.5194
10564WAT     H232095   3.605   4.066   3.797  1.5582  1.1300 -0.2540
10565WAT      O32096   5.135   4.029   2.418  0.2506 -0.0269 -0.2192
10565WAT     H132097   5.154   4.120   2.396 -0.5468 -0.0243 -0.9420
10565WAT     H232098   5.142   4.026   2.514  1.8286  0.4161 -0.2901
10566WAT      O32099   5.546   5.930   1.527 -0.3689 -0.9480 -0.2637
10566WAT     H132100   5.549   5.872   1.451 -1.2730  0.7994 -1.7109
10566WAT     H232101   5.571   6.016   1.493 -0.2501 -0.2210  1.5387
10567WAT      O32102   5.958   5.410   5.047 -0.2788  0.2752  0.4312
10567WAT     H132103   5.952   5.399   5.142  0.5156 -0.9630  0.3510
10567WAT     H232104   6.045   5.378   5.024 -0.6744  0.0126 -0.7822
10568WAT      O32105   1.412   7.018   0.076  0.6425 -0.3486 -0.3267
10568WAT     H132106   1.417   6.932   0.117 -0.6644 -0.2979  0.0034
10568WAT     H232107   1.353   7.006   0.002  0.7613  0.1709 -0.5106
10569WAT      O32108   5.521   1.002   4.551  0.2509 -0.0815  0.1360
10569WAT     H132109   5.546   0.919   4.593  2.2540  0.2064 -0.4086
10569WAT     H232110   5.446   1.032   4.602  0.9580 -1.0509  1.8487
10570WAT      O32111   1.553   4.305   0.900  0.0111  0.2879  0.2756
10570WAT     H132112   1.467   4.346   0.910  0.1825  1.3276 -2.0515
10570WAT     H232113   1.595   4.316   0.985 -1.7603  0.6389  1.1471
10571WAT      O32114   5.857   5.875   1.294 -0.4389 -0.0414 -0.3458
10571WAT     H132115   5.915   5.941   1.257  1.3599 -0.6004  1.3313
10571WAT     H232116   5.774   5.921   1.307 -0.0714  1.0926 -1.7508
10572WAT      O32117   7.245   3.580   1.617  0.4660  0.1541  0.5309
10572WAT     H132118   7.292   3.617   1.692  2.0936 -0.8938  0.0769
10572WAT     H232119   7.193   3.509   1.654 -0.1076  0.7603  0.9097
10573WAT      O32120   0.074   6.454   1.901  0.2200 -0.2209 -0.0164
10573WAT     H132121   0.044   6.418   1.985 -1.3217  0.9128 -0.0440
10573WAT     H232122   0.157   6.410   1.885 -0.6742 -2.3666  0.8378
10574WAT      O32123   6.302   2.537   3.007 -0.9067 -0.3840 -0.1983
10574WAT     H132124   6.296   2.441   3.007 -0.3392 -0.4478  0.9307
10574WAT     H232125   6.371   2.556   2.943 -0.3080 -0.8167  0.2899
10575WAT      O32126   0.666   2.398   5.361 -0.0800 -0.5420  0.1062
10575WAT     H132127   0.729   2.455   5.406 -1.0532  0.2300  0.5063
10575WAT     H232128   0.599   2.380   5.426 -0.4733 -1.0708 -0.4358
10576WAT      O32129   7.109   1.436   2.784 -1.2244 -0.6835 -0.1306
10576WAT     H132130   7.025   1.413   2.825 -1.7695  0.5616 -0.5012
10576WAT     H232131   7.159   1.477   2.855 -1.0209 -1.2147  0.0323
10577WAT      O32132   4.761   6.615   1.645 -0.1351  0.7835 -0.3978
10577WAT     H132133   4.718   6.651   1.722  0.0662  1.7508 -0.7207
10577WAT     H232134   4.690   6.599   1.583 -0.4695 -1.3359  0.4728
10578WAT      O32135   5.788   7.091   1.833 -0.8595  0.4197 -0.7042
10578WAT     H132136   5.730   7.140   1.891  0.1922  0.0004  0.7647
10578WAT     H232137   5.770   6.999   1.854  1.5545  0.2537  1.1903
10579WAT      O32138   5.972   6.642   1.198  0.3021  1.1796  0.1695
10579WAT     H132139   5.990   6.617   1.288  0.4322  2.2174  0.4488
10579WAT     H232140   5.991   6.564   1.146  0.1946  0.5665  1.0434
10580WAT      O32141   0.246   7.118   4.817 -0.1790 -0.4337 -0.3448
10580WAT     H132142   0.154   7.139   4.829 -0.1494  0.6436 -1.7340
10580WAT     H232143   0.292   7.174   4.879 -0.3498  0.6664 -1.1835
10581WAT      O32144   1.605   2.668   1.528 -0.8447  0.3762 -0.1664
10581WAT     H132145   1.633   2.592   1.477 -1.0407 -0.6087  1.1432
10581WAT     H232146   1.646   2.742   1.484  2.3409 -0.8088  0.5718
10582WAT      O32147   0.071   2.609   1.466  0.1258  0.4470 -0.2325
10582WAT     H132148   0.041   2.636   1.552 -1.0862  1.6834 -0.9924
10582WAT     H232149   0.077   2.514   1.471  0.0413  0.5056  1.1984
10583WAT      O32150   6.974   0.764   5.223  0.7799 -0.5133 -0.0144
10583WAT     H132151   6.892   0.741   5.180  0.1260 -0.2657  1.0557
10583WAT     H232152   7.020   0.681   5.232  0.4879 -0.7096 -0.2948
10584WAT      O32153   1.574   6.803   4.878  0.1225 -0.5729 -0.3115
10584WAT     H132154   1.613   6.886   4.848 -1.3748  0.2619 -0.0303
10584WAT     H232155   1.563   6.814   4.972 -0.2921 -1.0041 -0.3066
10585WAT      O32156   5.292   5.514   6.199 -0.3023 -0.1124 -0.4785
10585WAT     H132157   5.379   5.479   6.179  0.3663 -1.1898  3.4966
10585WAT     H232158   5.240   5.436   6.218 -1.4806  0.6533 -0.5171
10586WAT      O32159   3.252   0.354   3.448  0.1979 -0.0475  0.2415
10586WAT     H132160   3.212   0.367   3.534  0.2264  0.1205  0.2288
10586WAT     H232161   3.223   0.429   3.396  1.5888  0.7813  0.6107
10587WAT      O32162   3.374   0.028   3.154 -0.3669 -0.0558 -0.4565
10587WAT     H132163   3.346   0.043   3.244  2.3194 -0.0504  0.4553
10587WAT     H232164   3.422  -0.055   3.157  2.6900  1.5486 -1.0706
10588WAT      O32165   1.429   3.521   3.654 -0.4145 -0.3708 -0.1296
10588WAT     H132166   1.413   3.488   3.742 -0.0132  0.0172  0.0885
10588WAT     H232167   1.355   3.487   3.603 -1.7947  1.1235  0.7944
10589WAT      O32168   6.672   2.775   3.525  0.4131  0.0919  0.0445
10589WAT     H132169   6.761   2.746   3.502  0.5188  0.7696 -0.4443
10589WAT     H232170   6.648   2.834   3.454  0.6468  2.0848  1.5504
10590WAT      O32171   4.479   7.033   3.191  0.1460  0.0728  0.5286
10590WAT     H132172   4.486   6.999   3.280 -1.9282  0.0195  0.7178
10590WAT     H232173   4.456   7.125   3.202 -0.3956  0.0016  0.0706
10591WAT      O32174   3.787   4.093   0.419 -0.1056  0.4073 -0.2916
10591WAT     H132175   3.699   4.080   0.453  0.9820  0.8731  3.1703
10591WAT     H232176   3.788   4.184   0.388 -1.1227  0.0241 -1.5081
10592WAT      O32177   4.662   5.225   2.672 -0.4734 -0.0356  0.0976
10592WAT     H132178   4.686   5.280   2.598 -1.3589 -0.1051 -0.2534
10592WAT     H232179   4.743   5.214   2.721 -0.3124  1.7303  0.2893
10593WAT      O32180   3.586   0.950   1.992 -0.1885 -0.3605 -0.2161
10593WAT     H132181   3.662   0.997   2.025  0.7092 -0.6091 -1.8282
10593WAT     H232182   3.623   0.885   1.932 -1.7405  0.3491 -2.0115
10594WAT      O32183   5.261   5.184   3.813 -0.7166  0.1711  0.4576
10594WAT     H132184   5.284   5.204   3.722 -0.1769  1.8086  0.9239
10594WAT     H232185   5.183   5.235   3.830 -0.7428 -0.0314  0.9595
10595WAT      O32186   2.761   4.639   3.178 -0.3679  0.1545  0.1539
10595WAT     H132187   2.735   4.558   3.136 -0.2802  0.0242  0.3470
10595WAT     H232188   2.856   4.644   3.164 -0.4476  0.4766 -0.2909
10596WAT      O32189   5.254   5.438   5.697 -0.0415 -0.2815  0.0013
10596WAT     H132190   5.171   5.407   5.661 -0.5579 -0.7534  1.4959
10596WAT     H232191   5.276   5.373   5.764 -0.8853  2.1859  2.9233
10597WAT      O32192   5.039   5.041   2.140 -0.4510  0.2403 -0.1965
10597WAT     H132193   5.064   4.955   2.173 -2.2190 -0.1390  0.2698
10597WAT     H232194   4.949   5.054   2.171  0.1634  2.7945  0.7967
10598WAT      O32195   6.609   2.369   4.268 -0.7467 -0.4330 -0.0401
10598WAT     H132196   6.647   2.323   4.343  0.0127  0.4710  0.1528
10598WAT     H232197   6.548   2.306   4.229 -0.8768 -1.0438  1.1133
10599WAT      O32198   1.112   5.290   1.924  0.0954 -0.0603 -0.2409
10599WAT     H132199   1.018   5.306   1.931  0.2362  0.1493  1.4414
10599WAT     H232200   1.147   5.313   2.010  1.5434 -1.1521 -0.5105
10600WAT      O32201   7.474   0.982   2.133  0.7255  0.2216 -0.0268
10600WAT     H132202   7.476   1.054   2.069  1.8688  0.4213  0.2112
10600WAT     H232203   7.395   0.999   2.185  1.1770  1.5746  0.2907
10601WAT      O32204   6.615   3.463   4.255  0.0785  0.2962 -0.0816
10601WAT     H132205   6.689   3.516   4.285  0.5528  0.9799 -2.3232
10601WAT     H232206   6.653   3.376   4.239 -0.2058 -0.1136  1.2773
10602WAT      O32207   3.875   2.142   5.285 -0.9236 -0.1858  0.5636
10602WAT     H132208   3.821   2.066   5.262 -0.0925 -0.5886 -0.1154
10602WAT     H232209   3.812   2.210   5.305 -1.7132 -0.4798 -0.7619
10603WAT      O32210   6.461   5.562   2.713 -0.6513 -0.3561  0.3144
10603WAT     H132211   6.453   5.639   2.768 -0.1927  0.3630 -0.5916
10603WAT     H232212   6.505   5.593   2.634 -0.0066 -1.6403  0.1252
10604WAT      O32213   3.653   0.192   4.059 -0.8267 -0.0570 -0.0182
10604WAT     H132214   3.702   0.152   4.130 -1.6947  1.1461  1.3037
10604WAT     H232215   3.568   0.149   4.061 -0.6525 -0.4718 -0.7820
10605WAT      O32216   5.586   6.953   5.807 -0.2387 -0.1993  0.7497
10605WAT     H132217   5.546   6.971   5.722  0.2820  2.0066  0.9025
10605WAT     H232218   5.535   6.880   5.842  0.6678 -2.3990 -2.1563
10606WAT      O32219   3.322   2.114   5.680  0.2845 -0.2093  0.2611
10606WAT     H132220   3.341   2.187   5.739 -0.5193  0.2861 -0.0766
10606WAT     H232221   3.260   2.060   5.728 -0.3218  0.1611 -0.0890
10607WAT      O32222   2.488   3.357   3.916 -0.0649  0.0940  0.4496
10607WAT     H132223   2.433   3.280   3.900  0.9685 -0.4657 -0.5022
10607WAT     H232224   2.564   3.323   3.963  1.0555  0.2799 -1.1737
10608WAT      O32225   6.621   2.440   2.226  0.0582 -0.4445 -0.1503
10608WAT     H132226   6.709   2.414   2.198 -0.1034 -0.0473 -1.0617
10608WAT     H232227   6.564   2.415   2.153 -1.0342 -3.1381  1.4458
10609WAT      O32228   4.901   3.034   0.940 -0.7853 -0.7473 -0.1921
10609WAT     H132229   4.929   2.957   0.990  0.8548 -0.4508 -0.5856
10609WAT     H232230   4.949   3.107   0.979 -2.2961  0.0949  0.1488
10610WAT      O32231   0.041   7.089   2.860  0.0624 -0.2278  0.4472
10610WAT     H132232   0.072   7.048   2.941  1.0956 -0.4939 -0.0668
10610WAT     H232233  -0.037   7.137   2.886  1.1513  0.8367  1.8844
10611WAT      O32234   5.337   1.472   5.590  0.2709  0.0372  0.7330
10611WAT     H132235   5.274   1.404   5.612  0.2375 -0.4514 -0.7939
10611WAT     H232236   5.392   1.434   5.521 -2.1964  2.7258 -3.1388
10612WAT      O32237   6.702   2.758   0.052  0.3634  0.2639 -0.0383
10612WAT     H132238   6.620   2.770   0.005  0.0192 -2.0714 -0.1280
10612WAT     H232239   6.752   2.837   0.032 -0.7524  0.4913 -2.2809
10613WAT      O32240   5.709   2.289   1.562 -0.3224 -0.2566 -0.0877
10613WAT     H132241   5.710   2.226   1.634  2.3183 -1.3463 -0.9370
10613WAT     H232242   5.746   2.369   1.599  2.1448 -1.1651 -0.3943
10614WAT      O32243   5.690   4.614   1.706  0.0760  0.0337  0.0144
10614WAT     H132244   5.673   4.696   1.660  0.7768 -0.3872 -1.0405
10614WAT     H232245   5.641   4.548   1.657  1.7314 -0.6020 -0.8993
10615WAT      O32246   7.648   0.304   3.114  0.0437  0.4541  0.5716
10615WAT     H132247   7.640   0.243   3.187  0.9697  0.0603  0.3585
10615WAT     H232248   7.558   0.330   3.094 -0.3312 -0.5694  0.8863
10616WAT      O32249   5.611   4.381   0.887  0.4631  0.0805  0.4860
10616WAT     H132250   5.518   4.372   0.863  1.1863 -1.2558 -2.1325
10616WAT     H232251   5.611   4.372   0.983 -2.4208  3.5756  1.0411
10617WAT      O32252   2.626   3.773   5.870 -0.1611 -0.4191 -0.0603
10617WAT     H132253   2.716   3.776   5.835 -0.6243 -0.7651 -1.3399
10617WAT     H232254   2.631   3.823   5.952  0.8853  0.8432 -0.8448
10618WAT      O32255   0.633   4.800   6.240 -0.6107 -0.4625  0.3507
10618WAT     H132256   0.685   4.853   6.301  0.2544 -0.9887  0.0805
10618WAT     H232257   0.609   4.723   6.291 -1.4326 -0.0623  0.5827
10619WAT      O32258   1.266   3.399   5.530  0.2515  0.0764 -0.2153
10619WAT     H132259   1.241   3.428   5.618  1.5654  0.5606  0.0139
10619WAT     H232260   1.184   3.368   5.491 -0.2324 -0.8790  1.4496
10620WAT      O32261   3.649   3.444   1.995 -0.4622 -0.3943 -0.6227
10620WAT     H132262   3.597   3.438   1.915 -1.9053  0.3955  0.2105
10620WAT     H232263   3.656   3.538   2.012  1.3171 -0.4771 -0.7292
10621WAT      O32264   6.366   2.810   2.539 -0.0734  0.1675 -0.2095
10621WAT     H132265   6.452   2.841   2.510 -0.4234  0.1479 -1.3050
10621WAT     H232266   6.311   2.888   2.541 -0.6573 -0.1505 -1.8943
10622WAT      O32267   5.208   1.500   0.563 -0.0372 -0.1972 -0.2880
10622WAT     H132268   5.235   1.576   0.614 -1.8999  0.6547 -0.4901
10622WAT     H232269   5.140   1.458   0.616 -1.7170  0.4748 -1.8071
10623WAT      O32270   6.780   6.197   5.934 -0.3000 -0.2083 -0.2498
10623WAT     H132271   6.814   6.123   5.985 -0.3449 -0.7780 -1.0131
10623WAT     H232272   6.762   6.265   5.998  2.9609  0.4262  0.1444
10624WAT      O32273   5.512   5.580   4.706  0.2358 -0.1908 -0.0553
10624WAT     H132274   5.601   5.558   4.733  0.5730  1.3434  0.1599
10624WAT     H232275   5.458   5.562   4.783  0.8674  2.0131  0.9560
10625WAT      O32276   4.592   0.893   1.382  0.1476  0.4399 -0.7620
10625WAT     H132277   4.663   0.868   1.440  1.2830  2.5110 -1.1668
10625WAT     H232278   4.571   0.812   1.335  1.4834 -0.4792  0.1327
10626WAT      O32279   3.385   6.378   0.666 -0.2304 -0.0130  0.0458
10626WAT     H132280   3.297   6.382   0.627 -0.7341 -0.3533  1.1169
10626WAT     H232281   3.375   6.419   0.752  0.3285 -1.3349  0.7654
10627WAT      O32282   1.138   6.222   4.697 -0.0957  0.0079 -0.5710
10627WAT     H132283   1.098   6.135   4.704 -0.0447 -0.1862 -2.3272
10627WAT     H232284   1.067   6.283   4.715 -0.1055 -0.3690  0.8047
10628WAT      O32285   1.835   1.408   1.255 -0.5009 -0.2343 -0.0274
10628WAT     H132286   1.859   1.469   1.324 -1.6303 -1.8582  1.9098
10628WAT     H232287   1.898   1.336   1.263 -0.8306 -0.5793 -0.4787
10629WAT      O32288   6.695   0.184   1.402  0.3093 -0.0529 -0.0167
10629WAT     H132289   6.700   0.132   1.322 -0.4962 -2.9737  1.6749
10629WAT     H232290   6.670   0.271   1.372  2.3571 -0.3620 -3.1103
10630WAT      O32291   6.551   3.544   3.397 -0.1217  0.3499  0.1111
10630WAT     H132292   6.645   3.551   3.412  0.0564  1.8301 -1.3946
10630WAT     H232293   6.511   3.564   3.481  0.9002 -0.6954  0.8658
10631WAT      O32294   7.411   6.469   4.759 -0.5215  0.1958  0.0806
10631WAT     H132295   7.351   6.544   4.761 -1.5543 -0.5138 -1.8009
10631WAT     H232296   7.417   6.445   4.667 -0.3878 -2.1460  0.6213
10632WAT      O32297   1.518   6.974   4.457  0.2250  0.0904  0.3731
10632WAT     H132298   1.471   6.999   4.536 -0.4222 -1.1086  0.3834
10632WAT     H232299   1.606   6.951   4.488 -0.0802 -0.5527  0.7761
10633WAT      O32300   2.480   5.014   1.754  0.1925  0.6085 -0.2603
10633WAT     H132301   2.529   5.082   1.801  1.6385 -1.6155  1.6944
10633WAT     H232302   2.400   5.002   1.805  1.6321 -1.6055  1.6942
10634WAT      O32303   4.376   4.827   1.239  0.3278 -0.1378 -0.4302
10634WAT     H132304   4.411   4.856   1.324 -0.5228  0.6902 -0.3475
10634WAT     H232305   4.325   4.749   1.260 -2.2914  1.6350  0.3625
10635WAT      O32306   1.517   1.916   6.197 -0.3616 -0.0514 -0.1583
10635WAT     H132307   1.530   1.826   6.225  0.0860  0.1838  0.3980
10635WAT     H232308   1.524   1.913   6.102 -0.5612 -0.6376 -0.1549
10636WAT      O32309   5.721   3.724   2.753  0.1930 -0.1270 -0.5544
10636WAT     H132310   5.724   3.779   2.831 -2.3881  3.1208 -2.4380
10636WAT     H232311   5.650   3.662   2.769  1.1819 -1.0390  0.4669
10637WAT      O32312   2.242   2.261   5.002 -0.2663 -0.2996  0.1719
10637WAT     H132313   2.300   2.282   5.074 -0.8265  1.2892  0.1984
10637WAT     H232314   2.158   2.240   5.044  0.0011 -1.6176  0.0828
10638WAT      O32315   5.609   0.959   3.202 -0.1070  0.1112 -0.3012
10638WAT     H132316   5.686   0.926   3.248 -0.2699 -0.1428 -0.2099
10638WAT     H232317   5.644   0.996   3.121  0.2839  1.3000  0.3779
10639WAT      O32318   4.461   5.891   1.742 -0.1958  0.5325 -0.4282
10639WAT     H132319   4.455   5.982   1.713 -1.3417  0.0742 -1.7551
10639WAT     H232320   4.525   5.893   1.813 -0.1203  2.3503 -0.4862
10640WAT      O32321   1.444   4.025   5.198  0.0049  0.2571  0.1877
10640WAT     H132322   1.445   3.992   5.287  0.6095  0.9882  0.4609
10640WAT     H232323   1.353   4.053   5.184  0.0811  0.8797  0.8631
10641WAT      O32324   0.907   6.632   4.606 -0.1535  0.3838 -0.1609
10641WAT     H132325   0.885   6.540   4.620 -2.1206  0.5228 -1.9603
10641WAT     H232326   0.843   6.680   4.659 -2.3710  0.7269 -2.9437
10642WAT      O32327   0.202   2.367   4.716  0.2077  0.4864  0.4337
10642WAT     H132328   0.281   2.402   4.758 -0.1024  0.6562  0.8875
10642WAT     H232329   0.164   2.309   4.782 -0.7730  1.4597  0.7462
10643WAT      O32330   5.587   3.809   1.326 -0.4343 -0.4180 -0.1095
10643WAT     H132331   5.494   3.820   1.307 -1.0015 -0.7037  2.1799
10643WAT     H232332   5.590   3.789   1.420  1.8856 -1.2634 -0.3009
10644WAT      O32333   1.032   2.871   1.298  0.0965  0.7220 -0.1773
10644WAT     H132334   0.968   2.892   1.366 -0.9517  1.7562 -1.4022
10644WAT     H232335   1.097   2.816   1.341 -1.5117 -0.1914  1.1900
10645WAT      O32336   1.695   0.694   1.714  0.1559  0.0345  0.2258
10645WAT     H132337   1.734   0.717   1.630 -1.2650 -0.6875 -0.6708
10645WAT     H232338   1.602   0.715   1.704  0.1939  1.4140  2.1804
10646WAT      O32339   4.758   2.775   1.074 -0.3573 -0.2991  0.4786
10646WAT     H132340   4.676   2.795   1.120  0.3007 -1.4506  2.3073
10646WAT     H232341   4.826   2.812   1.130  0.3931  0.8279 -1.1222
10647WAT      O32342   3.174   6.881   5.860  0.9069 -0.4402 -0.2837
10647WAT     H132343   3.244   6.845   5.914  3.0141  2.3447 -0.9364
10647WAT     H232344   3.190   6.847   5.772  1.1853 -0.1456 -0.3476
10648WAT      O32345   6.914   1.531   0.671 -0.3151  0.2594 -0.1558
10648WAT     H132346   6.919   1.454   0.615  0.5947 -0.0146  0.2837
10648WAT     H232347   7.002   1.539   0.709 -0.2569  1.7727 -0.5454
10649WAT      O32348   1.255   4.413   5.621 -0.4760  0.1030  0.0750
10649WAT     H132349   1.248   4.380   5.710  0.5166  0.5529  0.3283
10649WAT     H232350   1.281   4.505   5.631  2.1939 -0.5020 -0.6793
10650WAT      O32351   4.994   1.332   3.687 -0.3244 -0.0313 -0.1281
10650WAT     H132352   5.033   1.375   3.764  1.0328 -1.5706  0.0836
10650WAT     H232353   4.997   1.239   3.707 -0.3129 -0.4424 -1.8914
10651WAT      O32354   2.971   3.229   0.168 -0.4038  0.7126  0.3890
10651WAT     H132355   2.963   3.322   0.149 -1.3316  0.5580 -0.0102
10651WAT     H232356   2.938   3.219   0.257 -0.5333  0.7293  0.3428
10652WAT      O32357   6.792   3.339   2.353 -0.1408 -0.4835  0.2421
10652WAT     H132358   6.718   3.367   2.300 -2.3685 -0.2492  3.1904
10652WAT     H232359   6.772   3.248   2.376  0.9683 -0.7088  0.3998
10653WAT      O32360   7.626   0.447   3.740 -0.3094  0.6063 -0.0168
10653WAT     H132361   7.534   0.434   3.762 -0.0402 -0.1657  0.6958
10653WAT     H232362   7.659   0.503   3.810  0.2849 -0.9642  1.0281
10654WAT      O32363   4.744   4.577   3.330  0.4859  0.5741  1.2051
10654WAT     H132364   4.710   4.539   3.249 -0.7712  4.6753 -0.4726
10654WAT     H232365   4.839   4.578   3.318  0.3610  0.4330  0.1112
10655WAT      O32366   1.408   0.361   5.067 -0.7930 -0.1202  0.3562
10655WAT     H132367   1.359   0.438   5.040  0.0665  0.6040  0.8070
10655WAT     H232368   1.497   0.393   5.080 -0.5634 -1.0549  1.1910
10656WAT      O32369   1.853   3.166   2.751  0.1135 -0.0749  0.3435
10656WAT     H132370   1.943   3.178   2.781  0.9117  0.7743 -2.1950
10656WAT     H232371   1.801   3.220   2.811  1.3254 -0.1358  1.5032
10657WAT      O32372   7.407   5.473   2.982  0.6169  0.0569 -0.4174
10657WAT     H132373   7.326   5.458   2.935  0.4248 -0.8034  0.1543
10657WAT     H232374   7.380   5.488   3.073  1.1524 -1.8063  0.0943
10658WAT      O32375   3.069   5.781   4.723  0.1826 -0.0387  0.3695
10658WAT     H132376   3.101   5.804   4.811  0.4079 -0.4797  0.4041
10658WAT     H232377   3.117   5.841   4.665  1.0424 -0.6527  0.4274
10659WAT      O32378   1.788   4.577   3.837 -0.0747  0.1111 -0.3080
10659WAT     H132379   1.756   4.631   3.909 -2.7948 -1.5190 -0.1626
10659WAT     H232380   1.777   4.487   3.867  1.2563 -0.6033 -1.7734
10660WAT      O32381   2.865   0.577   0.179 -0.3078 -0.6959 -0.6720
10660WAT     H132382   2.925   0.568   0.252 -0.8379 -0.8316 -0.2469
10660WAT     H232383   2.901   0.521   0.111 -1.1895 -2.6636  0.3999
10661WAT      O32384   1.724   6.303   2.447 -0.5374 -0.0407 -0.4372
10661WAT     H132385   1.747   6.374   2.387  0.2097 -0.9499 -1.2576
10661WAT     H232386   1.747   6.336   2.534  2.2433 -0.2022 -1.0332
10662WAT      O32387   3.554   2.529   3.229  0.1209  0.1942  0.4162
10662WAT     H132388   3.522   2.520   3.319  0.3363 -0.9306  0.3977
10662WAT     H232389   3.476   2.514   3.175 -0.0458  1.0504  0.4100
10663WAT      O32390   1.094   2.076   1.943 -0.4086 -0.5792  0.0873
10663WAT     H132391   1.125   2.151   1.893  2.5753 -0.5012  1.8417
10663WAT     H232392   1.088   2.107   2.033  4.1113 -2.9791  1.5478
10664WAT      O32393   5.356   1.074   1.044 -0.2751 -0.1409  0.7712
10664WAT     H132394   5.443   1.106   1.066  0.7543 -1.6925 -0.7828
10664WAT     H232395   5.339   1.005   1.107  0.2392 -0.7784  0.2217
10665WAT      O32396   3.253   2.089   1.273 -0.2709 -0.4440  0.2265
10665WAT     H132397   3.276   2.078   1.365  0.1117 -0.2189  0.1571
10665WAT     H232398   3.189   2.160   1.272 -0.2932 -0.4632  0.3199
10666WAT      O32399   4.516   5.100   4.328 -0.0203  0.2324 -0.1888
10666WAT     H132400   4.469   5.181   4.307  0.2109  0.9801  1.8499
10666WAT     H232401   4.505   5.091   4.423  0.1141 -2.0559 -0.3478
10667WAT      O32402   0.743   0.264   5.890 -0.3675 -0.3815 -0.1807
10667WAT     H132403   0.741   0.347   5.844  0.1855 -0.4626 -0.3591
10667WAT     H232404   0.834   0.253   5.917 -0.6347 -0.4500  0.7245
10668WAT      O32405   5.694   0.452   3.436  0.0303  0.0557  0.1301
10668WAT     H132406   5.737   0.369   3.417 -0.0577  0.0340  0.0268
10668WAT     H232407   5.635   0.467   3.362 -1.5325 -0.8456  1.1330
10669WAT      O32408   1.335   4.619   0.398  0.0727  0.2687  0.1608
10669WAT     H132409   1.344   4.682   0.326  1.2374  0.2757  0.2878
10669WAT     H232410   1.371   4.537   0.363 -0.4094 -0.0375  0.3656
10670WAT      O32411   4.970   6.165   4.583 -0.1865  0.2794  0.1631
10670WAT     H132412   4.958   6.216   4.663  0.9614  1.4473 -0.3729
10670WAT     H232413   4.896   6.191   4.527 -0.4391  0.2076  0.4603
10671WAT      O32414   5.814   5.814   2.563  0.2014 -0.5629 -0.3806
10671WAT     H132415   5.771   5.821   2.648  1.3608 -0.2816  0.2019
10671WAT     H232416   5.880   5.884   2.563  0.8252 -1.1262 -1.1413
10672WAT      O32417   0.674   0.275   1.533 -0.2284  0.2806 -0.2858
10672WAT     H132418   0.766   0.301   1.535 -0.4234  0.9748  0.0346
10672WAT     H232419   0.626   0.358   1.527 -0.8040 -0.1214 -1.8760
10673WAT      O32420   7.093   2.061   4.981  0.2653 -0.0381  0.1836
10673WAT     H132421   7.085   2.120   5.056  3.4299  1.4515 -0.5010
10673WAT     H232422   7.161   2.100   4.927  0.0653 -2.5575 -2.0787
10674WAT      O32423   4.120   2.136   4.983 -0.5499 -0.4089  0.8909
10674WAT     H132424   4.086   2.056   5.022 -0.7887  0.9798  3.8566
10674WAT     H232425   4.174   2.175   5.052  1.7858  0.6873 -1.3918
10675WAT      O32426   0.275   4.028   3.169  0.0339  0.2047 -0.9065
10675WAT     H132427   0.230   3.963   3.116 -0.5548  0.9843 -1.3979
10675WAT     H232428   0.342   4.064   3.111 -0.3902  0.8190 -1.0336
10676WAT      O32429   6.116   0.933   5.924  0.3650  0.0418  0.2602
10676WAT     H132430   6.024   0.943   5.947  0.1573  0.3975 -0.7054
10676WAT     H232431   6.158   0.904   6.006 -0.6946 -0.7144  0.5581
10677WAT      O32432   0.180   0.769   2.847  0.9566  0.3851  0.6593
10677WAT     H132433   0.207   0.855   2.879 -1.2283  1.1154  0.6876
10677WAT     H232434   0.175   0.714   2.925  0.3274  0.8192  0.9289
10678WAT      O32435   5.754   3.658   0.427 -0.1494 -0.2147  0.2989
10678WAT     H132436   5.786   3.738   0.386  0.2589  0.2417  1.4816
10678WAT     H232437   5.748   3.595   0.355 -0.3191  0.8179 -0.6167
10679WAT      O32438   2.303   6.420   1.030  0.3573 -0.1572 -0.1712
10679WAT     H132439   2.371   6.429   0.963  0.7400 -1.7059 -0.0323
10679WAT     H232440   2.299   6.326   1.047  0.5531  0.2083  2.2702
10680WAT      O32441   6.109   6.178   1.809 -0.0633 -0.9932  0.0930
10680WAT     H132442   6.191   6.139   1.843  0.9257 -1.0103 -2.1372
10680WAT     H232443   6.108   6.266   1.845  0.4321 -1.3001  0.9072
10681WAT      O32444   6.589   2.470   0.935 -0.7876 -0.5213  0.0119
10681WAT     H132445   6.639   2.543   0.900 -1.3125  0.3655  1.0731
10681WAT     H232446   6.612   2.396   0.878 -0.4659  0.5192 -1.2552
10682WAT      O32447   1.415   2.635   3.992 -0.2888 -0.2093  0.2499
10682WAT     H132448   1.337   2.691   3.994  1.3903  2.2968  0.2857
10682WAT     H232449   1.439   2.632   3.900 -0.9782 -1.8704  0.0989
10683WAT      O32450   0.051   3.670   0.881  0.0273 -0.3855  0.1509
10683WAT     H132451   0.111   3.636   0.814  1.8295  0.6573  1.1411
10683WAT     H232452   0.070   3.764   0.884 -0.0262 -0.4032  2.0798
10684WAT      O32453   0.985   0.213   4.138 -0.6291 -0.4016 -0.3464
10684WAT     H132454   0.912   0.228   4.078 -0.2974  0.4652 -0.5460
10684WAT     H232455   0.962   0.263   4.216  0.5194  1.2705 -1.0412
10685WAT      O32456   5.149   1.560   1.275  0.0200 -0.7009  0.1297
10685WAT     H132457   5.177   1.474   1.241  0.2416 -0.8749  0.7253
10685WAT     H232458   5.198   1.569   1.357 -0.4851 -0.2846  0.3868
10686WAT      O32459   3.081   0.415   2.998  0.6020  0.5150  0.0670
10686WAT     H132460   3.045   0.358   3.066 -0.0279 -0.7915 -1.3070
10686WAT     H232461   3.036   0.389   2.918  2.8443  0.4892 -1.2859
10687WAT      O32462   4.675   4.233   5.219 -0.0726 -0.3053 -0.2389
10687WAT     H132463   4.588   4.213   5.185 -0.7172 -0.2259  1.2740
10687WAT     H232464   4.688   4.171   5.291  2.1024 -1.8614 -1.8529
10688WAT      O32465   2.033   6.216   1.654  0.0381 -0.4069 -0.9508
10688WAT     H132466   2.017   6.166   1.734  1.0696 -0.8976 -1.0332
10688WAT     H232467   1.968   6.286   1.656  1.3909  0.9105  1.4103
10689WAT      O32468   2.096   2.252   4.272  0.4345 -1.0016 -0.4354
10689WAT     H132469   2.012   2.295   4.259  0.2492 -1.4235 -0.6534
10689WAT     H232470   2.085   2.204   4.355  0.7954 -0.2688  0.0474
10690WAT      O32471   5.468   4.729   2.754  0.1067 -0.3458  0.0638
10690WAT     H132472   5.483   4.634   2.753 -2.7139 -0.8966 -0.7461
10690WAT     H232473   5.472   4.753   2.847 -1.4420 -1.7910  0.5709
10691WAT      O32474   5.775   4.702   4.902 -0.3483 -0.1843  0.3941
10691WAT     H132475   5.847   4.757   4.872 -0.3887  0.1869  0.9586
10691WAT     H232476   5.721   4.688   4.824  0.1707 -0.2201  0.0338
10692WAT      O32477   7.181   1.653   2.610  0.1477 -0.6620 -0.3256
10692WAT     H132478   7.166   1.576   2.666  2.7120 -0.1659  1.2075
10692WAT     H232479   7.168   1.728   2.668 -3.8768  0.3318 -2.1589
10693WAT      O32480   5.247   1.053   0.262 -0.3011  0.6000 -0.2866
10693WAT     H132481   5.246   1.085   0.352 -0.9885  0.0500 -0.0957
10693WAT     H232482   5.340   1.047   0.240 -0.1191  0.1387  0.5965
10694WAT      O32483   0.572   0.318   2.356 -0.0890  0.1517 -0.4670
10694WAT     H132484   0.552   0.399   2.310  0.6336  0.8948  0.5128
10694WAT     H232485   0.664   0.325   2.379 -0.2424 -0.5540  0.4199
10695WAT      O32486   2.431   2.637   4.151 -0.1713  0.2830 -0.5803
10695WAT     H132487   2.394   2.594   4.228  0.0317 -1.0946 -1.2405
10695WAT     H232488   2.417   2.731   4.168 -0.1960  0.0090  1.0895
10696WAT      O32489   3.742   2.905   5.379 -0.0630 -0.1965  0.2088
10696WAT     H132490   3.756   2.934   5.289  0.3149  0.3282  0.4361
10696WAT     H232491   3.747   2.985   5.431 -2.3908 -0.1484  0.4812
10697WAT      O32492   6.385   7.082   0.356  0.2832 -0.1858  0.2438
10697WAT     H132493   6.349   7.170   0.342  1.1696  0.0235 -0.8918
10697WAT     H232494   6.471   7.098   0.397  1.3420 -0.3835 -1.7996
10698WAT      O32495   6.220   0.071   3.348 -0.5706 -0.3356 -0.2092
10698WAT     H132496   6.211   0.105   3.259  0.3866  1.8355  0.4469
10698WAT     H232497   6.289   0.005   3.342  0.3836  0.6798 -0.9065
10699WAT      O32498   3.473   5.894   4.356 -0.5343  0.6953  0.4692
10699WAT     H132499   3.521   5.817   4.324 -0.2287  1.2687 -0.4697
10699WAT     H232500   3.517   5.916   4.439  0.3930  0.7971 -0.0417
10700WAT      O32501   2.843   6.933   1.721 -0.2519 -0.1522  0.2828
10700WAT     H132502   2.822   6.876   1.795  0.4855 -0.0610  0.5735
10700WAT     H232503   2.929   6.970   1.743  0.7069 -1.3183 -1.3307
10701WAT      O32504   3.331   0.524   1.266  0.0549 -0.2961  0.5189
10701WAT     H132505   3.368   0.497   1.182 -0.4126 -1.8369  0.7765
10701WAT     H232506   3.373   0.466   1.330  0.5419  0.9754  1.3852
10702WAT      O32507   5.517   5.381   6.185 -0.7183 -0.2026 -0.3354
10702WAT     H132508   5.532   5.328   6.107  3.2179  0.0864  0.0395
10702WAT     H232509   5.535   5.322   6.258 -1.2814  0.3609  0.2685
10703WAT      O32510   5.465   4.818   5.861 -0.0639 -0.0763 -0.3901
10703WAT     H132511   5.490   4.863   5.781 -1.0419  1.3713  0.0817
10703WAT     H232512   5.370   4.811   5.857 -0.2001  0.6248  0.9287
10704WAT      O32513   0.785   0.760   2.924  0.3868  0.0462  0.0856
10704WAT     H132514   0.794   0.675   2.880  1.1264  0.0921  0.1347
10704WAT     H232515   0.854   0.759   2.990  1.9187  1.5862 -1.3759
10705WAT      O32516   3.475   1.376   4.203 -0.1485  0.9369 -0.2016
10705WAT     H132517   3.443   1.466   4.213 -1.3882  0.3709  1.5035
10705WAT     H232518   3.517   1.357   4.287 -1.0372 -0.4774 -0.0523
10706WAT      O32519   7.223   1.691   4.361  0.0795 -0.2878  0.0620
10706WAT     H132520   7.141   1.667   4.405 -0.6388  0.7923 -0.6406
10706WAT     H232521   7.205   1.776   4.322  0.1975 -1.7431 -3.5295
10707WAT      O32522   4.902   2.178   3.034 -0.3169  0.1740 -0.4394
10707WAT     H132523   4.835   2.246   3.035 -0.7045 -0.1946  0.7550
10707WAT     H232524   4.979   2.219   3.073 -0.6289 -0.1403  0.5157
10708WAT      O32525   0.867   6.852   2.990  0.2451 -0.4174 -0.0655
10708WAT     H132526   0.933   6.816   2.930 -0.4964 -0.7773 -0.6840
10708WAT     H232527   0.918   6.888   3.063  1.2589  1.2163 -1.5018
10709WAT      O32528   7.380   4.520   4.572 -0.5781 -0.0680 -0.4665
10709WAT     H132529   7.356   4.602   4.614 -0.4518 -0.9004  1.3463
10709WAT     H232530   7.373   4.537   4.478 -0.6430  1.9641 -0.1290
10710WAT      O32531   0.711   5.416   0.650  0.3560 -0.0413  0.1490
10710WAT     H132532   0.696   5.483   0.716  0.2281 -0.4518  0.5399
10710WAT     H232533   0.759   5.461   0.580 -0.2608  0.6063  0.1337
10711WAT      O32534   3.836   5.627   5.024  0.1580  0.4960  0.6471
10711WAT     H132535   3.928   5.635   5.050  0.4309  0.0165 -0.1207
10711WAT     H232536   3.817   5.709   4.978  0.1466  0.6739  0.9690
10712WAT      O32537   0.727   0.387   5.441 -0.0046  0.2427 -0.1344
10712WAT     H132538   0.683   0.465   5.476 -2.0264  0.0539 -2.0751
10712WAT     H232539   0.698   0.316   5.498  0.7229  0.6587  0.7840
10713WAT      O32540   5.689   3.766   1.588  0.2799  0.5712  0.0715
10713WAT     H132541   5.746   3.841   1.608 -2.2780  2.7572 -0.2349
10713WAT     H232542   5.627   3.764   1.661 -0.1919 -0.7622 -0.3541
10714WAT      O32543   2.089   5.570   4.357 -0.2075  0.1060 -0.4321
10714WAT     H132544   2.174   5.568   4.313  0.1644  3.1717 -0.0172
10714WAT     H232545   2.110   5.586   4.449 -1.1969 -1.3755  0.0906
10715WAT      O32546   6.259   2.508   3.942 -0.0545  0.2155 -0.2800
10715WAT     H132547   6.176   2.504   3.988  0.2080 -0.0158  0.1736
10715WAT     H232548   6.288   2.599   3.952 -0.2718  0.3063 -0.4747
10716WAT      O32549   5.858   5.780   1.761 -0.3339 -0.1628 -0.2261
10716WAT     H132550   5.835   5.873   1.762 -0.3404 -0.1572 -0.8332
10716WAT     H232551   5.908   5.767   1.842  0.3043  0.5328 -0.5003
10717WAT      O32552   3.173   5.258   1.254 -0.1576  0.1910  0.3051
10717WAT     H132553   3.120   5.196   1.204  0.8031  0.5219 -1.1783
10717WAT     H232554   3.134   5.344   1.236 -0.9128  0.1538  1.6133
10718WAT      O32555   1.691   2.931   1.179  0.2780  0.1661  0.1227
10718WAT     H132556   1.601   2.918   1.209 -0.9375  1.8318 -2.4973
10718WAT     H232557   1.703   2.866   1.110  1.0348  0.1060  0.2991
10719WAT      O32558   7.015   6.441   2.630  0.1860 -0.3764  0.4964
10719WAT     H132559   6.967   6.360   2.612 -0.6158 -0.0418  1.0752
10719WAT     H232560   6.955   6.494   2.683  0.7823  0.5084  0.3186
10720WAT      O32561   6.459   5.958   1.136 -0.0988 -0.0787  0.2771
10720WAT     H132562   6.414   5.937   1.218  0.8786 -0.7534  0.6544
10720WAT     H232563   6.412   5.908   1.069 -0.7540  0.2929  0.4475
10721WAT      O32564   0.964   6.489   2.175  0.5279 -0.2930 -0.9186
10721WAT     H132565   0.977   6.438   2.255 -0.1803  0.4086 -0.3365
10721WAT     H232566   0.906   6.434   2.122 -0.0018 -0.2336 -0.4155
10722WAT      O32567   6.680   4.270   4.962  0.1755  0.4233 -0.6485
10722WAT     H132568   6.599   4.245   4.917 -1.1490  1.2204  1.1488
10722WAT     H232569   6.678   4.220   5.044  0.1017  2.4315  0.6453
10723WAT      O32570   7.051   4.479   4.060 -0.1107 -0.3193  0.2851
10723WAT     H132571   7.041   4.571   4.085  0.9772 -0.5675  1.7447
10723WAT     H232572   7.018   4.476   3.970 -1.1356  1.2742  0.5561
10724WAT      O32573   6.474   3.391   5.909 -0.1762  0.3329 -0.2976
10724WAT     H132574   6.511   3.454   5.847  2.5487 -1.0747 -0.2271
10724WAT     H232575   6.533   3.394   5.984 -1.3863 -0.5994  0.7315
10725WAT      O32576   1.180   5.281   4.902  0.3637  0.0821  0.0067
10725WAT     H132577   1.107   5.240   4.948  0.1129  0.3608 -0.1325
10725WAT     H232578   1.256   5.228   4.924 -0.1417 -1.1319 -1.0790
10726WAT      O32579   0.382   2.571   2.814  0.5755 -0.0173  0.5481
10726WAT     H132580   0.383   2.517   2.893  3.4173 -1.2192 -0.1861
10726WAT     H232581   0.431   2.649   2.838 -2.0981  1.5951  1.1038
10727WAT      O32582   3.129   0.164   1.431 -0.3620 -0.3830  0.2518
10727WAT     H132583   3.218   0.144   1.401 -0.2169  1.6771 -0.9022
10727WAT     H232584   3.128   0.136   1.522  1.6141 -0.0736  0.4256
10728WAT      O32585   7.039   3.090   0.540 -0.2189  0.1787  0.1894
10728WAT     H132586   7.119   3.142   0.541  0.1655 -0.3908 -0.2939
10728WAT     H232587   7.032   3.058   0.450 -0.5288 -0.4811  0.4407
10729WAT      O32588   2.750   5.837   0.513  0.4083  0.3559 -0.0530
10729WAT     H132589   2.722   5.844   0.604  0.4045  0.9146 -0.0912
10729WAT     H232590   2.770   5.745   0.501 -0.8603  0.0293  0.1447
10730WAT      O32591   6.717   1.686   3.075 -0.3546 -0.0163 -0.5059
10730WAT     H132592   6.760   1.624   3.134  0.8477  1.2900  0.0494
10730WAT     H232593   6.653   1.732   3.130 -0.5359 -0.0726 -0.6684
10731WAT      O32594   3.702   2.129   2.114  0.4244 -0.1462  0.7718
10731WAT     H132595   3.762   2.196   2.083 -0.1142 -0.0733 -0.1264
10731WAT     H232596   3.631   2.177   2.156 -0.9651 -0.0006 -1.5885
10732WAT      O32597   7.536   2.993   5.135 -0.2886  0.6727 -0.4474
10732WAT     H132598   7.480   2.961   5.206 -0.1960  0.7460 -0.3400
10732WAT     H232599   7.476   3.015   5.065 -0.2934 -0.7051 -0.9114
10733WAT      O32600   6.663   3.710   0.591 -0.1308  0.0275 -0.2989
10733WAT     H132601   6.758   3.714   0.586 -0.1538  1.7103 -0.0255
10733WAT     H232602   6.644   3.707   0.685 -0.3541  2.5099 -0.1937
10734WAT      O32603   3.448   0.066   5.513 -0.0564  0.5784 -0.0536
10734WAT     H132604   3.427   0.159   5.514  0.3783  0.6886 -0.8381
10734WAT     H232605   3.476   0.047   5.603 -0.6855  1.0674  0.2607
10735WAT      O32606   7.189   0.757   6.113 -0.0611  0.0989 -0.0816
10735WAT     H132607   7.248   0.758   6.189 -0.8812 -0.1461  0.5766
10735WAT     H232608   7.189   0.847   6.081  1.5952 -0.1305 -0.8410
10736WAT      O32609   0.499   4.080   4.214 -0.2182 -0.1980 -0.5642
10736WAT     H132610   0.461   4.122   4.137  0.4592  1.1876 -0.1771
10736WAT     H232611   0.450   4.117   4.288 -0.8258 -1.4700 -0.2899
10737WAT      O32612   2.670   6.345   1.285  0.4833  0.5363  0.4222
10737WAT     H132613   2.643   6.437   1.282 -0.3431  0.2905  0.0888
10737WAT     H232614   2.610   6.306   1.349 -0.0092 -0.0314 -0.3735
10738WAT      O32615   6.004   3.574   3.343 -0.3906 -0.2824 -0.3836
10738WAT     H132616   5.979   3.481   3.341  0.4718 -0.5228 -0.1476
10738WAT     H232617   5.927   3.618   3.381 -1.1681 -0.7654 -1.3335
10739WAT      O32618   3.461   2.212   4.833  0.0976  0.0633 -0.3302
10739WAT     H132619   3.477   2.304   4.813  1.4403 -0.0884 -0.0342
10739WAT     H232620   3.486   2.202   4.925 -1.9940 -0.1720  0.2624
10740WAT      O32621   5.577   4.957   6.215 -0.0501  0.3054 -0.6476
10740WAT     H132622   5.593   5.042   6.256  0.5881  0.0967 -0.4484
10740WAT     H232623   5.641   4.952   6.144  0.6602 -0.4623  0.0264
10741WAT      O32624   0.863   5.233   2.974  0.0939  0.1566 -0.6006
10741WAT     H132625   0.935   5.266   2.920  0.2365 -0.1726 -0.6096
10741WAT     H232626   0.842   5.306   3.032 -0.2616  0.6277 -1.3028
10742WAT      O32627   6.146   6.964   1.484  0.2646 -0.0907 -0.5862
10742WAT     H132628   6.157   7.038   1.543  1.3071  0.1715 -1.0891
10742WAT     H232629   6.200   6.895   1.521  0.4706 -0.1094 -0.9172
10743WAT      O32630   3.674   3.758   2.812 -0.1939 -0.3056 -0.2758
10743WAT     H132631   3.747   3.788   2.758 -0.0320  1.8802  1.0404
10743WAT     H232632   3.678   3.663   2.807  2.2813 -0.2334 -0.8404
10744WAT      O32633   2.444   4.928   0.593  0.3071  0.2110  0.1715
10744WAT     H132634   2.408   4.850   0.552  0.3783  0.4909 -0.4226
10744WAT     H232635   2.536   4.908   0.606  0.4168  0.3546 -0.3676
10745WAT      O32636   2.474   0.505   0.346  0.1753  0.3010  0.3167
10745WAT     H132637   2.504   0.585   0.389  0.1064  0.7995 -0.5353
10745WAT     H232638   2.383   0.523   0.321 -0.1720 -0.4185  0.9893
10746WAT      O32639   6.410   4.514   1.389 -0.0023 -0.1334  0.1731
10746WAT     H132640   6.314   4.513   1.393 -0.0734  0.4756 -0.9104
10746WAT     H232641   6.430   4.564   1.309  1.2311  0.7155  0.9772
10747WAT      O32642   4.717   3.822   3.872 -0.2525  0.3311  0.1593
10747WAT     H132643   4.802   3.778   3.867  0.1805  1.2793 -1.7539
10747WAT     H232644   4.665   3.784   3.801 -0.8860  0.8785  0.3159
10748WAT      O32645   4.673   3.050   2.978  0.2908 -0.4067 -0.1602
10748WAT     H132646   4.646   3.131   2.935  1.7536 -0.0476 -0.4687
10748WAT     H232647   4.646   3.061   3.069 -0.4367 -0.0255 -0.4129
10749WAT      O32648   6.563   3.266   0.746 -0.0959 -0.2835 -0.5991
10749WAT     H132649   6.587   3.192   0.801 -0.0030 -0.1052 -0.3979
10749WAT     H232650   6.646   3.299   0.712 -0.1629 -0.4765 -0.9569
10750WAT      O32651   6.776   3.135   2.031  0.7792 -0.0142 -0.3448
10750WAT     H132652   6.784   3.109   2.122  0.9520 -0.1157 -0.3881
10750WAT     H232653   6.682   3.136   2.014  0.7742 -0.8835 -0.4177
10751WAT      O32654   2.036   5.071   1.675 -0.0717 -0.1088 -0.4636
10751WAT     H132655   1.981   5.149   1.690 -1.6339 -1.0337 -1.1255
10751WAT     H232656   2.076   5.087   1.590 -0.3234  0.0194 -0.5611
10752WAT      O32657   5.338   1.489   6.188 -0.1178  0.6692 -0.3059
10752WAT     H132658   5.256   1.511   6.231  0.8377  1.7370  1.0580
10752WAT     H232659   5.393   1.453   6.258  0.5452 -0.1612 -1.2175
10753WAT      O32660   1.747   3.988   2.105  0.0637  0.0837  0.3076
10753WAT     H132661   1.744   4.017   2.196  0.3090  1.2263 -0.0253
10753WAT     H232662   1.796   4.057   2.060  2.4708 -1.8594 -0.2046
10754WAT      O32663   4.236   0.485   5.447  0.2811  0.1242 -0.1680
10754WAT     H132664   4.247   0.390   5.441 -2.2941 -0.3687  1.3854
10754WAT     H232665   4.270   0.507   5.534 -0.9805  0.2539  0.3113
10755WAT      O32666   5.889   0.411   2.127  0.6792 -0.6700 -0.3259
10755WAT     H132667   5.801   0.374   2.132 -0.4092  1.0295 -3.4834
10755WAT     H232668   5.929   0.368   2.051  1.4174  0.6357 -0.7146
10756WAT      O32669   0.224   4.518   2.027  0.1687 -0.7067  0.6336
10756WAT     H132670   0.166   4.482   2.094 -1.4030 -2.0932 -1.3535
10756WAT     H232671   0.265   4.442   1.986  1.4754  0.1300  0.2946
10757WAT      O32672   6.708   5.121   3.982 -0.4094  0.0813  0.1838
10757WAT     H132673   6.702   5.211   3.948  0.6175  0.2017  0.2965
10757WAT     H232674   6.675   5.128   4.072 -0.4739  0.3118  0.1440
10758WAT      O32675   1.547   2.495   4.228 -0.0090  0.1832  0.7505
10758WAT     H132676   1.491   2.522   4.156  1.1876  0.9744  0.0884
10758WAT     H232677   1.561   2.401   4.215 -0.8488  0.0636  0.7039
10759WAT      O32678   3.656   5.043   0.175  0.5522  0.2880  0.0814
10759WAT     H132679   3.688   5.004   0.094  0.0686  0.2851 -0.1111
10759WAT     H232680   3.567   5.010   0.184  0.5568  0.4004  0.5413
10760WAT      O32681   3.173   3.938   5.236  0.1225  0.0827 -0.2282
10760WAT     H132682   3.094   3.985   5.263  1.3483  1.5677  0.9455
10760WAT     H232683   3.143   3.850   5.216 -1.5060 -0.0470  2.3974
10761WAT      O32684   0.719   0.387   4.744 -0.1015 -0.0221  0.3930
10761WAT     H132685   0.698   0.481   4.739  0.2653  0.0271 -0.4907
10761WAT     H232686   0.642   0.344   4.706 -0.4626 -0.1131  1.2143
10762WAT      O32687   3.368   6.117   4.221  0.0943  0.0480  0.1312
10762WAT     H132688   3.375   6.175   4.297 -1.7980 -0.2530  0.6114
10762WAT     H232689   3.411   6.036   4.248  0.4868  0.3556  0.4337
10763WAT      O32690   7.145   3.610   2.958  0.1205  0.0153  0.1103
10763WAT     H132691   7.107   3.535   2.911  0.1808 -0.1545  0.3309
10763WAT     H232692   7.085   3.625   3.031 -0.4436  0.8223 -0.4942
10764WAT      O32693   0.784   4.710   6.016  0.2816  0.0178 -0.3233
10764WAT     H132694   0.761   4.742   6.104 -0.4642 -1.6789  0.1276
10764WAT     H232695   0.812   4.619   6.030  0.9032 -0.0368 -1.7568
10765WAT      O32696   0.432   1.252   1.798  0.0631  0.3379 -0.6685
10765WAT     H132697   0.471   1.172   1.833  1.1605  0.8115 -0.7789
10765WAT     H232698   0.492   1.322   1.823 -1.8132  1.4404  1.0660
10766WAT      O32699   0.252   1.691   4.323 -0.1994  0.4059  0.1419
10766WAT     H132700   0.259   1.780   4.358 -1.3931  0.6038 -0.0805
10766WAT     H232701   0.341   1.656   4.330 -0.0200  1.0623  1.6811
10767WAT      O32702   0.532   0.796   5.909  0.3132  0.1989  0.1009
10767WAT     H132703   0.581   0.724   5.947 -1.3521 -1.6364 -1.0098
10767WAT     H232704   0.446   0.793   5.952 -1.5665 -1.8096 -3.3088
10768WAT      O32705   5.622   7.208   5.671  0.1696 -0.2208 -0.1001
10768WAT     H132706   5.603   7.301   5.660  0.3496 -0.2223 -0.4333
10768WAT     H232707   5.656   7.201   5.761 -1.6695 -0.2725  0.6376
10769WAT      O32708   1.391   5.303   2.715  0.3046  0.0131 -0.2527
10769WAT     H132709   1.459   5.368   2.731 -1.2001  1.4617  0.5735
10769WAT     H232710   1.429   5.244   2.650  1.8740  1.4844 -0.7514
10770WAT      O32711   5.745   4.097   0.014 -0.4853 -0.1186 -0.5822
10770WAT     H132712   5.788   4.141   0.088  1.8158 -0.6170 -1.5168
10770WAT     H232713   5.688   4.032   0.054 -1.0992  1.1902  0.7655
10771WAT      O32714   2.969   4.869   2.984 -0.3669  0.0206  0.3733
10771WAT     H132715   2.960   4.814   2.906  1.7613  0.0328  0.0624
10771WAT     H232716   3.016   4.814   3.047  0.3252  0.9011  0.6569
10772WAT      O32717   5.022   3.611   0.208  0.4068 -0.0752  0.0915
10772WAT     H132718   4.964   3.637   0.279 -0.0653 -3.1119  0.9163
10772WAT     H232719   5.004   3.675   0.138 -2.7530  0.0472  0.8906
10773WAT      O32720   7.600   3.027   0.360  0.8381  0.2385  0.2089
10773WAT     H132721   7.655   3.070   0.425 -1.2502  0.1235  2.1647
10773WAT     H232722   7.575   3.097   0.299  0.6024  0.9983  1.1455
10774WAT      O32723   3.817   4.590   3.054  0.2533  0.7760 -0.0713
10774WAT     H132724   3.811   4.541   3.136  1.4867 -1.7915 -1.3897
10774WAT     H232725   3.907   4.576   3.024  0.4209  3.2949 -0.9340
10775WAT      O32726   0.821   0.293   5.008 -0.1656  0.6788  0.1062
10775WAT     H132727   0.753   0.280   5.075 -0.3754  1.3330  0.0279
10775WAT     H232728   0.775   0.338   4.937  0.2221  0.6031 -0.1935
10776WAT      O32729   6.740   6.916   3.693  0.1994 -0.1092 -0.1439
10776WAT     H132730   6.720   6.883   3.781 -1.9641 -0.0807 -0.5683
10776WAT     H232731   6.829   6.884   3.675  1.5066  1.4587  2.7542
10777WAT      O32732   7.093   4.758   2.499  0.2857 -0.4075 -0.1534
10777WAT     H132733   7.161   4.826   2.497  0.2645 -0.3459  0.7001
10777WAT     H232734   7.129   4.692   2.557 -0.0707 -0.7264 -0.2980
10778WAT      O32735   5.080   2.197   4.007 -0.0382  0.6208 -0.3733
10778WAT     H132736   5.001   2.153   3.976  0.8230 -0.7408 -0.6950
10778WAT     H232737   5.085   2.174   4.100 -1.4992  3.0260  0.4069
10779WAT      O32738   3.237   5.733   0.805 -0.7413  0.4252 -0.3380
10779WAT     H132739   3.183   5.675   0.858  0.7874 -0.8768 -0.1320
10779WAT     H232740   3.191   5.739   0.721 -1.7054  0.1671  0.1640
10780WAT      O32741   3.254   3.663   5.176 -0.4350  0.3775 -0.5738
10780WAT     H132742   3.333   3.687   5.224 -0.6659 -1.4669  0.8313
10780WAT     H232743   3.231   3.577   5.210 -1.4813 -0.3613 -2.9618
10781WAT      O32744   7.091   2.713   5.323  0.4522 -0.6245 -0.3913
10781WAT     H132745   7.119   2.623   5.340 -2.5915 -1.5249  0.4638
10781WAT     H232746   7.091   2.754   5.410 -0.9274 -0.7125 -0.3313
10782WAT      O32747   2.316   2.731   3.056 -0.1710 -0.3341 -0.7992
10782WAT     H132748   2.403   2.760   3.083  1.6951 -4.4344 -1.7092
10782WAT     H232749   2.300   2.778   2.974  1.6117 -0.1381 -1.0749
10783WAT      O32750   6.462   6.266   3.040  0.0109  0.3394  0.2470
10783WAT     H132751   6.492   6.264   3.131 -1.7960 -0.0506  0.8795
10783WAT     H232752   6.463   6.358   3.016  1.9139  0.3200  0.1349
10784WAT      O32753   1.628   4.302   1.207  0.1376 -0.1305 -0.1567
10784WAT     H132754   1.715   4.321   1.243 -0.3594  1.4749  0.2862
10784WAT     H232755   1.611   4.211   1.231  1.9178 -0.6612 -0.7472
10785WAT      O32756   5.247   4.779   3.461 -0.5577 -0.4024  0.2749
10785WAT     H132757   5.246   4.759   3.367 -1.5276  1.0467 -0.0612
10785WAT     H232758   5.172   4.837   3.473 -0.1989 -0.2428  1.8879
10786WAT      O32759   7.204   6.451   0.692 -0.0949  0.0537  0.3492
10786WAT     H132760   7.224   6.424   0.782 -3.1828 -1.8538  0.6270
10786WAT     H232761   7.160   6.535   0.701 -2.2399 -1.0502  0.9614
10787WAT      O32762   6.733   5.960   0.825 -0.4144  0.3497 -0.4932
10787WAT     H132763   6.707   6.005   0.905  0.5927  1.8266 -0.9673
10787WAT     H232764   6.664   5.895   0.811 -0.5431 -0.0363  1.6226
10788WAT      O32765   6.056   1.517   4.777 -0.6638 -0.1077 -0.3482
10788WAT     H132766   6.133   1.566   4.747  0.1781 -0.7724  0.6613
10788WAT     H232767   6.059   1.523   4.872 -1.6804 -0.4375 -0.2823
10789WAT      O32768   2.497   0.990   0.722  0.1115 -0.5994  0.6758
10789WAT     H132769   2.428   1.000   0.656  0.7391 -2.1615 -0.2738
10789WAT     H232770   2.509   1.078   0.758  1.2235  0.8399 -2.7976
10790WAT      O32771   5.329   6.295   6.023 -0.5017 -0.5791  0.4782
10790WAT     H132772   5.259   6.358   6.040 -1.3193 -1.2967 -0.1332
10790WAT     H232773   5.374   6.286   6.107 -1.1671 -0.1342  0.8964
10791WAT      O32774   3.935   5.752   2.417  0.1240 -0.1729  0.1423
10791WAT     H132775   3.986   5.767   2.496  1.4446  0.0669 -0.7059
10791WAT     H232776   3.920   5.840   2.381  2.0680 -0.3774 -1.3464
10792WAT      O32777   5.117   3.769   2.922 -0.3714 -0.1048 -0.4924
10792WAT     H132778   5.203   3.753   2.960  0.2478  0.5670 -1.5475
10792WAT     H232779   5.129   3.755   2.828 -1.3450  0.2655 -0.6849
10793WAT      O32780   4.368   4.515   1.634 -0.3601  0.2716 -0.3322
10793WAT     H132781   4.453   4.537   1.673  0.4630  0.0765 -1.9448
10793WAT     H232782   4.324   4.463   1.701  0.4898  0.9542  0.8095
10794WAT      O32783   6.945   5.436   2.613  0.1992  0.3276  0.2224
10794WAT     H132784   6.948   5.359   2.555  0.3678  0.2053  0.3921
10794WAT     H232785   6.861   5.428   2.659 -0.8678  1.4757 -1.4296
10795WAT      O32786   2.775   7.120   4.577  0.0806  0.3849 -0.2464
10795WAT     H132787   2.745   7.164   4.656  2.3699  0.3527  0.7235
10795WAT     H232788   2.791   7.030   4.604  1.2217  0.4557 -0.6158
10796WAT      O32789   1.943   4.695   1.611 -0.2520  0.1485  0.0572
10796WAT     H132790   1.920   4.765   1.673  2.5994 -0.4966  2.0016
10796WAT     H232791   2.003   4.737   1.549  0.8532 -0.3273  0.7714
10797WAT      O32792   2.633   4.379   5.560  0.1907  0.6098  0.6452
10797WAT     H132793   2.630   4.290   5.596  1.5103 -0.0364 -0.7517
10797WAT     H232794   2.622   4.436   5.636  1.2253 -0.7166  1.8407
10798WAT      O32795   0.790   3.954   1.685 -0.3059  0.1090 -0.0348
10798WAT     H132796   0.747   3.920   1.763  0.8761 -2.5519 -0.4141
10798WAT     H232797   0.877   3.980   1.714 -0.1031 -0.2447 -0.3066
10799WAT      O32798   2.800   5.130   1.719 -0.6457 -0.5086  0.2717
10799WAT     H132799   2.815   5.133   1.814 -0.6356  0.6185  0.2519
10799WAT     H232800   2.815   5.039   1.695 -2.7210 -1.3001  1.6871
10800WAT      O32801   3.893   6.810   0.399  0.2321 -0.4801  0.1738
10800WAT     H132802   3.953   6.736   0.385 -0.5563 -1.0280 -0.3515
10800WAT     H232803   3.943   6.886   0.371  0.3549 -1.0392 -1.1761
10801WAT      O32804   5.998   3.678   4.331 -0.2534  0.0724 -0.1248
10801WAT     H132805   5.908   3.685   4.362 -0.1269  2.0348 -0.0989
10801WAT     H232806   6.051   3.700   4.408  0.0753  4.2912 -1.3148
10802WAT      O32807   3.346   5.155   4.102 -0.2767 -0.0956 -0.0281
10802WAT     H132808   3.390   5.238   4.084 -1.7354  1.2930  2.1600
10802WAT     H232809   3.253   5.175   4.090 -0.6408 -1.4448  0.3892
10803WAT      O32810   7.120   3.496   5.441 -0.5603 -0.6434 -0.8393
10803WAT     H132811   7.047   3.553   5.419 -0.2226 -0.2319 -0.9149
10803WAT     H232812   7.190   3.523   5.380  0.3242  0.3555  0.5596
10804WAT      O32813   7.263   4.605   1.237 -0.3285  0.1591 -0.4299
10804WAT     H132814   7.192   4.665   1.260 -1.1157 -1.4789  1.7749
10804WAT     H232815   7.309   4.590   1.319 -0.4756 -2.5895 -0.7461
10805WAT      O32816   2.654   2.513   3.679  0.1657  0.3270 -0.6512
10805WAT     H132817   2.607   2.545   3.756  1.8994  1.4513 -0.0209
10805WAT     H232818   2.596   2.537   3.605 -1.7659 -1.2381  0.2629
10806WAT      O32819   5.179   3.030   5.222 -0.0708  0.4263 -0.0819
10806WAT     H132820   5.234   3.103   5.196 -0.3919  0.2005 -1.5026
10806WAT     H232821   5.120   3.065   5.288  1.9013  0.6088  1.6630
10807WAT      O32822   4.641   3.574   1.805  0.0063 -0.5213 -0.1629
10807WAT     H132823   4.582   3.546   1.874 -0.2136 -0.0371 -0.1473
10807WAT     H232824   4.613   3.664   1.784  1.9344  0.4816  1.2158
10808WAT      O32825   1.762   5.149   4.749 -0.3987 -0.1503  0.5056
10808WAT     H132826   1.714   5.162   4.831 -2.0438 -0.2354 -0.3961
10808WAT     H232827   1.709   5.195   4.683  1.1309  0.3155 -0.4469
10809WAT      O32828   4.076   0.882   5.324 -0.1107  0.2985 -0.1854
10809WAT     H132829   4.070   0.934   5.404 -1.4926 -0.2944  0.1173
10809WAT     H232830   4.002   0.821   5.329  1.1927 -1.4201 -0.7242
10810WAT      O32831   1.523   6.913   0.514  0.8389  0.4419  0.2014
10810WAT     H132832   1.456   6.948   0.455  0.7600  0.5726  0.3698
10810WAT     H232833   1.565   6.991   0.551  0.0523  0.3595  1.2850
10811WAT      O32834   2.259   4.182   5.021 -0.3596  0.4735  0.4946
10811WAT     H132835   2.234   4.115   5.085  1.5551  1.7141  2.6900
10811WAT     H232836   2.241   4.142   4.936 -0.8005 -2.1773  1.7369
10812WAT      O32837   6.222   4.979   5.025  0.2310  0.1371  0.2491
10812WAT     H132838   6.183   4.933   5.100  0.2857  0.0807  0.2429
10812WAT     H232839   6.282   4.915   4.987 -0.5986 -0.2171 -0.4966
10813WAT      O32840   6.623   5.030   0.921  0.3485  0.0033 -0.8114
10813WAT     H132841   6.671   5.109   0.895 -1.0334  1.5482  1.0559
10813WAT     H232842   6.641   5.022   1.015 -1.8834 -0.1492 -0.3498
10814WAT      O32843   3.652   1.261   0.044  0.3013  0.6567  0.0067
10814WAT     H132844   3.665   1.356   0.046 -1.4293  0.9605 -0.6970
10814WAT     H232845   3.656   1.238  -0.049  2.4621 -0.2963  0.2727
10815WAT      O32846   4.881   4.284   1.891 -0.5527  0.7083 -0.1222
10815WAT     H132847   4.882   4.334   1.973 -0.3682  1.8343 -0.7886
10815WAT     H232848   4.899   4.349   1.823 -0.2622 -0.2838 -1.0235
10816WAT      O32849   6.101   4.825   2.296  0.4522  0.1224 -0.9722
10816WAT     H132850   6.086   4.732   2.316 -0.7259  0.4739 -0.1298
10816WAT     H232851   6.017   4.867   2.314  1.4323  1.6285  0.3217
10817WAT      O32852   4.963   0.204   3.076 -0.1614  0.2330  0.4329
10817WAT     H132853   4.947   0.133   3.139  1.5641  1.1200  1.9764
10817WAT     H232854   4.974   0.281   3.131  1.0908  1.1074 -1.0055
10818WAT      O32855   1.941   5.452   5.328  0.0441  0.3871  0.5332
10818WAT     H132856   1.990   5.371   5.341 -0.8760 -0.3913 -0.6292
10818WAT     H232857   1.851   5.423   5.310 -0.6887  1.7379  1.7667
10819WAT      O32858   6.059   6.422   0.096 -0.0387  0.4859 -0.1115
10819WAT     H132859   6.036   6.445   0.186  0.2271  0.8245 -0.1307
10819WAT     H232860   6.154   6.421   0.095  0.0349 -2.4425  0.3761
10820WAT      O32861   1.134   5.995   2.252  0.2439 -0.3184 -0.5100
10820WAT     H132862   1.064   6.018   2.192 -0.3249 -2.7650 -0.9226
10820WAT     H232863   1.213   5.991   2.198  0.4000  0.8272 -0.3782
10821WAT      O32864   1.926   4.862   4.857  0.2892 -0.5761  0.1702
10821WAT     H132865   1.981   4.783   4.854  0.9938 -0.0831 -0.1738
10821WAT     H232866   1.967   4.922   4.795  1.0625  0.8788  1.9682
10822WAT      O32867   5.191   0.140   6.039  0.2691 -0.3308  0.3516
10822WAT     H132868   5.242   0.160   6.118  0.3616  1.0923 -0.0279
10822WAT     H232869   5.132   0.216   6.030  0.4000 -0.3756 -1.0446
10823WAT      O32870   5.630   2.721   5.104  0.4725 -0.0290 -0.1378
10823WAT     H132871   5.667   2.771   5.176 -1.8519  1.8793 -0.1409
10823WAT     H232872   5.563   2.666   5.144 -0.2126  0.3739 -0.6982
10824WAT      O32873   2.985   2.671   1.992 -0.4708  0.1233 -0.2379
10824WAT     H132874   2.890   2.668   1.993 -0.5240  1.2421 -0.1128
10824WAT     H232875   3.006   2.761   1.967  0.5537 -0.1575 -0.4490
10825WAT      O32876   2.391   1.609   4.107  0.7410  0.2246 -0.3436
10825WAT     H132877   2.368   1.538   4.048 -1.2951  0.2510  0.3581
10825WAT     H232878   2.482   1.630   4.084  1.4556 -2.6221 -0.5251
10826WAT      O32879   0.663   1.272   0.499  0.4234  0.6897  0.1044
10826WAT     H132880   0.575   1.253   0.467  1.2012 -0.5696 -1.4259
10826WAT     H232881   0.664   1.367   0.513 -0.9706  0.8061 -0.4441
10827WAT      O32882   2.491   5.297   2.805  0.1778 -0.2468 -0.0213
10827WAT     H132883   2.532   5.374   2.765  1.9313 -0.4867  1.1770
10827WAT     H232884   2.404   5.326   2.831  0.4705  1.0426 -0.4264
10828WAT      O32885   3.139   2.469   2.562  0.0622 -0.8100 -0.3767
10828WAT     H132886   3.159   2.432   2.648 -1.3254  0.9542  0.7806
10828WAT     H232887   3.069   2.532   2.579 -0.0362 -0.1838 -2.7729
10829WAT      O32888   6.455   5.271   1.314  0.3551 -0.1418 -0.1954
10829WAT     H132889   6.406   5.207   1.366  1.2743  0.3031  1.2947
10829WAT     H232890   6.393   5.341   1.297  0.3096  0.1958  1.2564
10830WAT      O32891   1.414   0.223   4.579  0.0410 -0.3104  0.0993
10830WAT     H132892   1.416   0.316   4.556  2.0824 -0.1606  0.7244
10830WAT     H232893   1.321   0.202   4.585 -0.4627  1.9328  0.9127
10831WAT      O32894   3.519   4.315   1.976  0.2485  0.0064 -0.6844
10831WAT     H132895   3.454   4.384   1.968  0.6606  0.3068 -1.5510
10831WAT     H232896   3.506   4.260   1.899  1.8308  0.7809 -1.5458
10832WAT      O32897   7.068   5.219   1.448  0.1849  0.3095 -0.6873
10832WAT     H132898   7.111   5.163   1.513 -0.3472  1.2963  0.5686
10832WAT     H232899   7.086   5.308   1.478 -0.0110  0.8015 -1.9589
10833WAT      O32900   1.573   0.817   0.020 -0.0372 -0.2616 -0.5581
10833WAT     H132901   1.496   0.855   0.063 -0.1042  0.8201 -1.5943
10833WAT     H232902   1.643   0.825   0.085 -0.8035 -1.3925  0.4533
10834WAT      O32903   4.839   6.901   0.917 -0.2925 -0.8285 -0.0840
10834WAT     H132904   4.925   6.927   0.952 -0.2590  0.6393 -1.1550
10834WAT     H232905   4.858   6.873   0.827 -1.0619  0.9139 -0.8557
10835WAT      O32906   4.348   3.747   2.600  0.1404 -0.4081  0.1053
10835WAT     H132907   4.260   3.753   2.563  0.0903 -1.0454  0.1060
10835WAT     H232908   4.353   3.657   2.634  0.4443 -0.0774  0.9736
10836WAT      O32909   6.564   0.517   5.353 -0.3647 -0.3385 -0.1026
10836WAT     H132910   6.562   0.613   5.351  1.2127 -0.2479 -2.7056
10836WAT     H232911   6.477   0.491   5.380 -1.0741  1.8425 -0.1145
10837WAT      O32912   6.966   3.780   1.007  0.3871  0.3084 -0.0149
10837WAT     H132913   7.046   3.791   1.060 -0.2045  2.2724  0.5575
10837WAT     H232914   6.961   3.861   0.956 -1.0549  0.0615 -0.2857
10838WAT      O32915   5.674   5.489   3.367 -0.2900  0.4368 -0.2522
10838WAT     H132916   5.670   5.490   3.463  0.6732 -1.3184 -0.1545
10838WAT     H232917   5.594   5.534   3.339 -1.6645 -0.8702  1.3766
10839WAT      O32918   2.682   5.305   3.361  0.4974  0.2014 -0.2122
10839WAT     H132919   2.772   5.275   3.349  0.4912  0.1218 -0.0657
10839WAT     H232920   2.661   5.283   3.452  0.9063  1.7655  0.2930
10840WAT      O32921   5.431   2.670   3.509 -0.1971  0.0631  0.0597
10840WAT     H132922   5.489   2.698   3.580 -1.5912  2.5899  0.3125
10840WAT     H232923   5.346   2.658   3.550 -0.8254  0.6779 -1.0059
10841WAT      O32924   0.385   2.071   3.075  0.0619  0.4017  0.2710
10841WAT     H132925   0.458   2.118   3.115  1.2081  0.3564 -1.6543
10841WAT     H232926   0.390   1.983   3.110 -0.2172  0.8692  1.5442
10842WAT      O32927   6.374   3.939   5.283 -0.5816  0.1801 -0.3830
10842WAT     H132928   6.349   3.881   5.355 -1.1554  0.8443 -0.0461
10842WAT     H232929   6.294   3.954   5.234 -0.6864  1.5920  0.1852
10843WAT      O32930   2.343   5.776   0.803  0.3367  0.5056  0.5683
10843WAT     H132931   2.392   5.730   0.872  0.2073  1.8633  1.6123
10843WAT     H232932   2.408   5.829   0.758  0.4387 -0.4622 -0.4594
10844WAT      O32933   3.841   0.534   5.863 -0.4532 -0.0952 -0.4024
10844WAT     H132934   3.836   0.496   5.951  0.7431  1.0660  0.2030
10844WAT     H232935   3.935   0.548   5.848 -0.6551 -0.0931 -1.7919
10845WAT      O32936   2.815   4.930   4.831 -0.1417  0.1651 -0.2567
10845WAT     H132937   2.840   4.856   4.885 -0.4967  0.7003  0.6649
10845WAT     H232938   2.898   4.973   4.808 -0.0596  1.0373  1.4879
10846WAT      O32939   4.359   6.997   4.645  0.2698 -0.3514  0.0883
10846WAT     H132940   4.316   7.022   4.727 -0.9865 -0.9322 -0.3835
10846WAT     H232941   4.293   6.947   4.597  1.6763 -1.8732 -0.3640
10847WAT      O32942   2.789   2.702   5.727 -0.5000  0.3970  0.4992
10847WAT     H132943   2.880   2.726   5.743  0.0264 -0.4656 -1.0392
10847WAT     H232944   2.784   2.610   5.750 -0.7273  0.1887 -0.3413
10848WAT      O32945   4.841   1.687   3.480 -0.4143  0.0823  0.0972
10848WAT     H132946   4.801   1.772   3.462  0.9484  0.4977 -1.1702
10848WAT     H232947   4.884   1.662   3.398  0.4542 -1.1422  0.8787
10849WAT      O32948   1.250   6.160   1.396  0.1810 -0.0512 -0.6923
10849WAT     H132949   1.273   6.069   1.414  0.9847 -0.2805 -2.7050
10849WAT     H232950   1.203   6.157   1.312 -0.8867  1.2619 -0.1845
10850WAT      O32951   6.600   3.938   5.566 -0.7107  0.8649 -0.0934
10850WAT     H132952   6.547   4.018   5.570 -2.6065 -0.2693 -0.9846
10850WAT     H232953   6.597   3.904   5.656 -2.2376  0.4114 -0.2806
10851WAT      O32954   0.942   6.155   2.107  0.1176 -0.5537 -0.0149
10851WAT     H132955   0.870   6.155   2.044  0.7784 -0.2510 -0.7798
10851WAT     H232956   0.899   6.142   2.192 -0.8647 -0.0603 -0.4195
10852WAT      O32957   1.064   0.792   2.595  0.2592 -0.4096  0.1353
10852WAT     H132958   1.068   0.823   2.686 -0.8661  0.4775 -0.1123
10852WAT     H232959   1.076   0.870   2.542 -0.9449 -0.6284 -0.4880
10853WAT      O32960   1.560   5.870   6.225  0.1100 -0.3916  0.2523
10853WAT     H132961   1.506   5.949   6.220 -0.5020 -0.7165  1.3128
10853WAT     H232962   1.567   5.839   6.135  0.8200  1.1590 -0.2727
10854WAT      O32963   4.040   5.998   4.186 -0.3420  0.8476  0.2378
10854WAT     H132964   4.105   5.993   4.256  1.8439 -1.0812 -1.7332
10854WAT     H232965   3.963   5.953   4.221  1.4307 -2.0163  0.7883
10855WAT      O32966   3.644   2.711   5.736  0.5200  0.0470 -0.1811
10855WAT     H132967   3.601   2.724   5.652 -0.4111 -2.6899 -0.2331
10855WAT     H232968   3.721   2.656   5.716 -0.2387 -1.4537  0.7863
10856WAT      O32969   3.725   0.056   4.536 -0.1450 -0.0334 -0.1647
10856WAT     H132970   3.631   0.038   4.550 -0.7933  1.2666 -2.3071
10856WAT     H232971   3.741   0.138   4.581  0.1059 -0.5104  0.6258
10857WAT      O32972   0.000   0.240   0.167 -0.5787 -0.1194 -0.2569
10857WAT     H132973   0.066   0.241   0.237 -0.2652  1.7301 -0.5266
10857WAT     H232974   0.041   0.191   0.096 -0.4764 -1.0910  0.4527
10858WAT      O32975   5.514   3.000   2.656  0.3075 -0.2121  0.5827
10858WAT     H132976   5.589   3.059   2.655 -1.3792  2.0838 -0.9925
10858WAT     H232977   5.535   2.934   2.591  0.7566  0.7252 -0.2578
10859WAT      O32978   1.064   5.365   3.970  0.0836 -0.1331 -0.1062
10859WAT     H132979   0.986   5.366   4.025  0.9723  0.3364  1.2262
10859WAT     H232980   1.095   5.456   3.972 -0.7392  0.2816 -2.7778
10860WAT      O32981   5.121   6.038   5.012  0.1024 -0.2857  1.0060
10860WAT     H132982   5.120   6.105   5.081  0.1572  2.0007 -1.0709
10860WAT     H232983   5.045   6.058   4.957  1.5531 -0.2747 -1.1127
10861WAT      O32984  -0.000   6.371   4.244 -0.3347 -0.2559  0.0195
10861WAT     H132985  -0.005   6.464   4.222 -1.8005 -0.1515  0.7002
10861WAT     H232986   0.031   6.368   4.334  0.5457 -0.4847 -0.2744
10862WAT      O32987   6.678   5.403   3.889 -0.0000  0.2637  0.3300
10862WAT     H132988   6.615   5.431   3.956 -0.5028 -1.0630  0.4380
10862WAT     H232989   6.746   5.471   3.890 -1.2408  1.5492  0.4449
10863WAT      O32990   6.389   0.663   2.277  0.5098 -0.1355 -0.2046
10863WAT     H132991   6.342   0.587   2.309 -0.9872  0.9766  0.3512
10863WAT     H232992   6.464   0.627   2.229  0.7655 -1.9107  1.4247
10864WAT      O32993   4.982   1.649   2.040  0.1352 -0.7196 -0.4876
10864WAT     H132994   4.896   1.636   2.000 -0.5191  1.2106  0.1769
10864WAT     H232995   4.967   1.712   2.111  2.1076 -0.1954 -0.4531
10865WAT      O32996   4.370   2.484   1.426 -0.1040  0.0892 -0.4162
10865WAT     H132997   4.327   2.564   1.457 -0.8253 -0.3836 -0.1681
10865WAT     H232998   4.443   2.470   1.486 -0.2981  0.2687 -0.1408
10866WAT      O32999   4.530   3.357   1.047 -0.2928  0.1031  0.3476
10866WAT     H133000   4.543   3.267   1.017 -1.4698  0.2110 -0.5863
10866WAT     H233001   4.555   3.356   1.140 -0.8037 -1.3211  0.4896
10867WAT      O33002   7.541   7.055   2.033 -0.8504 -0.0739 -0.3366
10867WAT     H133003   7.486   7.094   2.102  0.3886 -1.1304  1.3097
10867WAT     H233004   7.534   6.961   2.047  0.9220 -0.2512 -0.4352
10868WAT      O33005   6.192   5.121   4.757 -0.1646 -0.0218 -0.3406
10868WAT     H133006   6.104   5.137   4.724  0.2543  1.0224 -1.0023
10868WAT     H233007   6.182   5.117   4.852 -1.1395 -1.4127 -0.4824
10869WAT      O33008   3.286   4.851   5.168  0.3215  0.8407  0.4219
10869WAT     H133009   3.287   4.911   5.093 -1.1741 -0.4395 -0.6850
10869WAT     H233010   3.377   4.847   5.196  0.9880  1.0986 -1.5446
10870WAT      O33011   1.711   2.016   1.332 -0.1985 -0.5187  0.1078
10870WAT     H133012   1.745   1.934   1.366  0.3637 -0.0944  0.5723
10870WAT     H233013   1.639   2.038   1.391  1.5907  0.8830  1.8788
10871WAT      O33014   4.996   2.008   0.575 -0.0783 -0.5057  0.3711
10871WAT     H133015   5.048   1.944   0.525 -0.1773 -0.7439  0.5743
10871WAT     H233016   5.034   2.007   0.662  0.1649 -0.0059  0.2747
10872WAT      O33017   6.816   2.520   2.928 -0.0963  0.4856  0.6650
10872WAT     H133018   6.820   2.444   2.870 -1.0055  1.1221 -0.2667
10872WAT     H233019   6.864   2.493   3.006 -0.1512 -0.9405  0.2355
10873WAT      O33020   6.667   0.803   2.855 -0.0198 -0.0472 -0.0644
10873WAT     H133021   6.704   0.836   2.773 -0.1804 -0.6856 -0.4030
10873WAT     H233022   6.734   0.742   2.887 -0.5432 -0.8123 -0.4120
10874WAT      O33023   2.554   1.677   2.494  0.2409  0.4021 -0.1867
10874WAT     H133024   2.494   1.621   2.542  0.7379  0.6610  0.7499
10874WAT     H233025   2.534   1.766   2.526 -0.1783  0.7220 -1.2675
10875WAT      O33026   0.008   1.504   5.969 -0.3315  0.2618  0.5150
10875WAT     H133027   0.081   1.443   5.981 -0.9601 -0.1052  3.2377
10875WAT     H233028   0.005   1.521   5.875  2.7117 -0.3592  0.2247
10876WAT      O33029   3.756   1.907   2.676  0.1815  1.1285  0.5251
10876WAT     H133030   3.699   1.866   2.741 -0.0679  0.7553  0.0778
10876WAT     H233031   3.842   1.910   2.718  0.3639 -0.4967  0.3177
10877WAT      O33032   5.686   6.213   4.465 -0.6592  0.0412 -0.1487
10877WAT     H133033   5.741   6.136   4.450  0.7233  0.4108  2.4042
10877WAT     H233034   5.609   6.179   4.510  0.4095  0.1694  1.8968
10878WAT      O33035   6.879   3.768   2.021  0.1906  0.8277  0.6120
10878WAT     H133036   6.868   3.834   1.953 -1.9893  0.2555  0.3296
10878WAT     H233037   6.874   3.684   1.975  0.5129  0.4363  1.2654
10879WAT      O33038   4.939   0.322   2.837  0.2734  0.1480  0.0127
10879WAT     H133039   4.844   0.322   2.846  0.2650 -0.5718 -0.0268
10879WAT     H233040   4.970   0.274   2.914  0.5219 -0.7938 -0.6568
10880WAT      O33041   2.570   2.757   5.200  0.0687  0.1473 -0.2988
10880WAT     H133042   2.549   2.667   5.175  2.7885 -0.4255 -0.8279
10880WAT     H233043   2.639   2.748   5.265  1.5597  1.8201 -1.5529
10881WAT      O33044   4.587   2.428   3.116  0.2871  0.6577 -0.1975
10881WAT     H133045   4.621   2.383   3.193 -1.9997  0.5722  0.8315
10881WAT     H233046   4.574   2.518   3.146 -0.8698  0.5589 -0.3763
10882WAT      O33047   3.344   6.077   2.005  0.5451  0.3144  0.3648
10882WAT     H133048   3.288   6.105   2.078 -0.1773 -1.2331  0.4429
10882WAT     H233049   3.288   6.019   1.953  2.2088 -1.7496  0.7575
10883WAT      O33050   0.389   7.060   0.102 -0.3737 -0.1026  0.6105
10883WAT     H133051   0.401   6.999   0.175  0.1814  1.1873  1.6453
10883WAT     H233052   0.447   7.026   0.033  0.1016 -0.6100  1.2465
10884WAT      O33053   0.829   6.757   5.506 -0.0607  0.2263 -0.0092
10884WAT     H133054   0.887   6.681   5.496 -1.2512 -0.4621 -2.4404
10884WAT     H233055   0.743   6.719   5.523 -0.7761  0.9640 -1.8241
10885WAT      O33056   6.457   0.861   5.386 -0.3031 -0.0796 -0.5850
10885WAT     H133057   6.411   0.939   5.418  2.2149  0.8884  0.9836
10885WAT     H233058   6.479   0.812   5.465  1.2514 -0.5201 -1.2566
10886WAT      O33059   7.539   1.062   1.089 -0.2014 -0.3313  0.2014
10886WAT     H133060   7.560   1.121   1.161  0.9576 -1.1768  0.5915
10886WAT     H233061   7.542   0.974   1.128  1.3829 -0.8811 -1.0440
10887WAT      O33062   4.307   0.225   5.482  0.4684  0.2551  0.5622
10887WAT     H133063   4.305   0.129   5.471  2.3703  0.3743 -1.6564
10887WAT     H233064   4.312   0.239   5.576 -0.5726 -1.7915  0.9793
10888WAT      O33065   1.497   1.702   3.672 -0.0817  0.1223  0.0761
10888WAT     H133066   1.511   1.731   3.762 -2.3309 -1.4819  1.0458
10888WAT     H233067   1.459   1.778   3.628  4.4147  2.2517 -0.7785
10889WAT      O33068   2.235   1.669   2.500 -0.4670 -0.3140 -0.2109
10889WAT     H133069   2.262   1.639   2.587 -0.6719 -1.4715 -0.5366
10889WAT     H233070   2.284   1.750   2.487 -0.1082 -0.3540  0.8071
10890WAT      O33071   0.219   2.634   5.365  0.2563  0.5840  0.2461
10890WAT     H133072   0.161   2.699   5.403 -2.6762 -2.5695  1.7485
10890WAT     H233073   0.286   2.620   5.433 -0.9460 -0.1300  1.3297
10891WAT      O33074   4.931   3.845   2.640 -0.4344  0.3779 -0.3007
10891WAT     H133075   4.994   3.774   2.629 -1.1470 -0.3099 -0.0397
10891WAT     H233076   4.963   3.914   2.583  0.8646  0.2662  0.2490
10892WAT      O33077   0.456   4.319   1.234 -0.8416  0.3249  0.4900
10892WAT     H133078   0.482   4.363   1.153 -0.3489  0.0710  0.5112
10892WAT     H233079   0.496   4.371   1.303 -1.4033  0.6418  0.5858
10893WAT      O33080   0.216   1.459   5.544 -0.8616  0.2112 -0.6091
10893WAT     H133081   0.160   1.481   5.618  0.6826 -0.3027  0.7736
10893WAT     H233082   0.285   1.405   5.582 -0.0836 -0.1549 -2.4590
10894WAT      O33083   2.431   6.097   0.584 -0.7846  0.4381  0.5674
10894WAT     H133084   2.461   6.124   0.671  0.8933  0.9136 -0.1196
10894WAT     H233085   2.487   6.145   0.523 -1.6332 -0.2146 -0.7834
10895WAT      O33086   3.838   1.989   0.020  0.1508 -0.2808  0.1195
10895WAT     H133087   3.933   1.977   0.020  0.0206 -1.7321  1.3559
10895WAT     H233088   3.820   2.041   0.099 -0.0368  0.6696 -0.5328
10896WAT      O33089   7.182   5.476   4.572 -0.0928  0.0746 -0.0994
10896WAT     H133090   7.200   5.548   4.632  0.8028  0.6598 -1.0424
10896WAT     H233091   7.129   5.415   4.623 -0.9509  1.4314  0.7001
10897WAT      O33092   7.450   5.019   3.912 -0.3729 -0.2927  0.0359
10897WAT     H133093   7.487   5.096   3.870 -0.1144 -1.2636 -1.5880
10897WAT     H233094   7.455   5.038   4.006 -1.0722  1.9892 -0.3267
10898WAT      O33095   5.051   3.276   4.628 -0.3604 -0.2754 -0.8806
10898WAT     H133096   5.021   3.186   4.640 -1.2765 -0.1901 -2.2620
10898WAT     H233097   4.972   3.324   4.603 -0.3327  1.3902  1.8814
10899WAT      O33098   3.431   3.537   0.687 -0.0636 -0.2417 -0.2627
10899WAT     H133099   3.422   3.522   0.781 -0.1867  1.9215  0.1139
10899WAT     H233100   3.514   3.495   0.664  1.5048  1.6996  1.4543
10900WAT      O33101   4.737   6.233   6.235 -0.2627  0.0931 -0.1577
10900WAT     H133102   4.746   6.139   6.221  0.7962  0.1340  0.1711
10900WAT     H233103   4.827   6.265   6.245 -0.6355  1.0560  0.2831
10901WAT      O33104   0.488   3.868   3.668  0.3130 -0.1317  0.1961
10901WAT     H133105   0.541   3.882   3.590  0.2436  0.8542  0.3175
10901WAT     H233106   0.488   3.952   3.713 -1.6096 -0.0002  0.0421
10902WAT      O33107   3.604   0.937   4.477 -0.9182 -0.2937 -0.4064
10902WAT     H133108   3.537   1.003   4.458  0.2652  0.7588 -1.1215
10902WAT     H233109   3.557   0.854   4.477 -1.8852  0.1497 -3.2078
10903WAT      O33110   0.066   3.054   5.488  0.0339  0.1993 -0.0847
10903WAT     H133111  -0.015   3.089   5.525  0.8771  1.4602  0.6332
10903WAT     H233112   0.129   3.126   5.497  0.8695 -0.2436 -1.9141
10904WAT      O33113   2.581   6.345   2.934  0.0815 -0.4482 -0.2882
10904WAT     H133114   2.543   6.285   2.998 -1.0729 -0.3649 -0.8767
10904WAT     H233115   2.515   6.413   2.922  0.7779  0.1701 -0.6957
10905WAT      O33116   5.837   1.896   6.043  0.1086 -0.1662  0.4644
10905WAT     H133117   5.783   1.830   6.000  0.6037 -0.5379  0.4016
10905WAT     H233118   5.853   1.862   6.131 -2.0020  1.2056  1.4519
10906WAT      O33119   2.311   1.624   4.481  0.2069  0.2341 -0.0612
10906WAT     H133120   2.307   1.530   4.463 -1.4569 -0.1897  2.0999
10906WAT     H233121   2.221   1.653   4.471  0.4753  1.3278  0.6100
10907WAT      O33122   3.448   7.164   6.160  0.5121 -0.3103 -0.1954
10907WAT     H133123   3.423   7.083   6.203 -1.5339  0.9493  1.2075
10907WAT     H233124   3.403   7.162   6.076 -1.7006  0.4224  0.8999
10908WAT      O33125   7.080   4.604   3.457 -0.7605  0.3376 -0.1669
10908WAT     H133126   6.997   4.631   3.418 -0.4090  1.1715 -0.3837
10908WAT     H233127   7.057   4.536   3.520 -1.4791 -0.1889 -0.9751
10909WAT      O33128   0.607   5.998   4.992 -0.0328 -0.3051  0.4927
10909WAT     H133129   0.660   5.943   5.050 -0.6921 -1.7143 -0.1833
10909WAT     H233130   0.548   6.046   5.051 -1.2787 -2.3407  0.9915
10910WAT      O33131   4.900   5.872   2.436  0.1064  0.8403  0.4238
10910WAT     H133132   4.820   5.821   2.448  0.2804  0.3461 -0.4361
10910WAT     H233133   4.971   5.807   2.440  0.3800  1.1114  0.0206
10911WAT      O33134   4.467   6.005   3.227  0.1988  0.0331 -0.3115
10911WAT     H133135   4.554   5.967   3.212  0.4298 -0.5018  1.9487
10911WAT     H233136   4.485   6.093   3.259 -0.0532 -0.2113  0.5239
10912WAT      O33137   0.983   1.921   1.369  0.4891 -0.4511 -0.5484
10912WAT     H133138   1.029   1.842   1.341  0.0548 -0.4162 -1.4059
10912WAT     H233139   1.032   1.953   1.444  0.4753 -1.7324  0.0345
10913WAT      O33140   2.952   4.396   2.850 -0.3535 -0.2734 -0.0992
10913WAT     H133141   3.042   4.374   2.825  0.6264  1.7765  1.3759
10913WAT     H233142   2.915   4.436   2.771  0.4151 -0.0793 -0.3701
10914WAT      O33143   0.138   4.991   0.987 -0.1594 -0.2010  0.0096
10914WAT     H133144   0.217   4.943   0.963  0.5519  0.0576  1.6515
10914WAT     H233145   0.136   5.066   0.927  2.1096  1.0032  1.2547
10915WAT      O33146   3.458   3.791   5.808  0.0209  0.3030 -0.2856
10915WAT     H133147   3.539   3.806   5.760 -0.4752 -0.6371 -1.4599
10915WAT     H233148   3.455   3.861   5.873  1.4793  0.6836 -0.6025
10916WAT      O33149   7.089   5.983   0.336  0.3866  0.3696 -0.0842
10916WAT     H133150   7.003   6.008   0.368  0.7469  1.0254  0.3886
10916WAT     H233151   7.148   6.052   0.368  1.0115  0.1753 -0.7837
10917WAT      O33152   7.501   4.115   4.684  0.2185 -0.3561  0.3104
10917WAT     H133153   7.425   4.172   4.673 -0.5312 -1.5973 -1.4084
10917WAT     H233154   7.528   4.129   4.774 -1.3763  0.9278  0.6521
10918WAT      O33155   2.409   6.789   3.738  0.0766  0.0227 -0.2549
10918WAT     H133156   2.449   6.742   3.811  0.4481  0.2586 -0.3042
10918WAT     H233157   2.320   6.805   3.766  0.7200  1.7393  0.9279
10919WAT      O33158   6.198   6.980   0.855 -0.2760 -0.4523  0.2330
10919WAT     H133159   6.204   6.897   0.902 -1.0524 -0.1151  0.9525
10919WAT     H233160   6.278   6.984   0.803 -0.3011 -1.7197  0.0677
10920WAT      O33161   0.566   6.563   1.053 -0.1865 -0.4879  0.1961
10920WAT     H133162   0.534   6.543   0.965  0.0768 -2.2102  0.4665
10920WAT     H233163   0.532   6.493   1.108  2.0818 -1.1115  0.9145
10921WAT      O33164   1.635   4.564   4.723 -0.2212  0.0349 -0.0644
10921WAT     H133165   1.623   4.655   4.750 -1.2972 -0.4719  1.3106
10921WAT     H233166   1.647   4.516   4.805  0.9734 -0.9946 -0.8034
10922WAT      O33167   0.098   5.111   3.448 -0.0703  0.3073  0.2773
10922WAT     H133168   0.176   5.073   3.407  0.8534  0.5238  1.7458
10922WAT     H233169   0.053   5.038   3.488  0.7541  0.4873  1.5812
10923WAT      O33170   5.467   6.680   1.565 -0.7526  0.0553 -0.1805
10923WAT     H133171   5.535   6.748   1.568 -0.1449 -0.5532  0.1305
10923WAT     H233172   5.445   6.664   1.657 -0.3736 -0.6626 -0.2046
10924WAT      O33173   0.964   2.306   3.303  0.5984 -0.4600 -0.1754
10924WAT     H133174   0.987   2.221   3.264  0.4834  0.1753 -1.6756
10924WAT     H233175   1.024   2.368   3.262 -1.9848  0.8299 -2.2714
10925WAT      O33176   2.944   3.218   5.276 -0.0019 -0.2862 -0.2846
10925WAT     H133177   3.035   3.200   5.300  0.0891 -1.1852 -1.2357
10925WAT     H233178   2.920   3.145   5.219 -1.3986 -0.1824  0.1423
10926WAT      O33179   1.600   3.693   5.800  1.1728 -0.0116 -0.1988
10926WAT     H133180   1.542   3.665   5.729  1.6462 -0.9090 -0.2408
10926WAT     H233181   1.685   3.655   5.778  2.3643  2.8838 -1.1920
10927WAT      O33182   4.876   0.730   4.692 -0.3367  0.0916  0.0233
10927WAT     H133183   4.967   0.718   4.667  0.1859  0.6490  1.5051
10927WAT     H233184   4.868   0.685   4.777 -1.5549 -0.3173 -0.2823
10928WAT      O33185   2.632   1.148   0.406  0.1436 -0.1659  0.2045
10928WAT     H133186   2.660   1.225   0.455  0.4935 -0.2149  0.0839
10928WAT     H233187   2.713   1.109   0.373 -0.0035 -0.7518  0.5123
10929WAT      O33188   0.280   1.256   3.407 -0.0020  0.2188 -0.2469
10929WAT     H133189   0.306   1.292   3.491  0.2136  0.6304 -0.4884
10929WAT     H233190   0.211   1.192   3.428  0.2092  0.1557  0.2562
10930WAT      O33191   3.487   1.346   1.812 -0.3050 -0.0920 -0.0881
10930WAT     H133192   3.500   1.261   1.769 -0.4493  0.0758 -0.4628
10930WAT     H233193   3.396   1.369   1.792 -0.1830  0.2805 -0.2203
10931WAT      O33194   2.392   4.064   3.998  0.4889  0.0009  0.2992
10931WAT     H133195   2.461   4.104   3.946  0.6664  0.4264  0.8524
10931WAT     H233196   2.427   4.062   4.087  1.4233 -3.3847  0.0172
10932WAT      O33197   4.200   4.950   2.322  0.2765 -0.4090  0.0057
10932WAT     H133198   4.138   4.898   2.374  2.3769 -1.3592  1.7163
10932WAT     H233199   4.153   5.031   2.303 -1.3320 -0.8902  1.6179
10933WAT      O33200   1.965   5.671   4.643  0.3460 -0.1599 -0.0987
10933WAT     H133201   2.012   5.699   4.721  0.2499  0.6499 -0.3188
10933WAT     H233202   1.981   5.741   4.579 -0.1710 -0.4554 -0.5660
10934WAT      O33203   2.989   4.528   4.747  0.1141  0.2850  0.1860
10934WAT     H133204   2.901   4.560   4.765  0.6652  1.0708  1.6413
10934WAT     H233205   2.997   4.449   4.801  0.9444  1.2865  1.5642
10935WAT      O33206   1.592   3.217   2.489 -0.1405  0.2277 -0.0480
10935WAT     H133207   1.554   3.253   2.569  2.9412  0.9858  1.2478
10935WAT     H233208   1.568   3.280   2.421 -2.0287  0.0807  0.4455
10936WAT      O33209   1.759   0.085   0.375 -0.1977  0.1773 -0.1165
10936WAT     H133210   1.784   0.015   0.436  1.2566  0.4348 -0.3701
10936WAT     H233211   1.842   0.113   0.337 -0.7485  2.1320  0.0564
10937WAT      O33212   5.723   6.357   0.620  0.3098 -0.4580  0.2422
10937WAT     H133213   5.656   6.366   0.687 -1.0668 -0.4093 -1.0901
10937WAT     H233214   5.785   6.294   0.656 -0.2556 -0.2267  1.6532
10938WAT      O33215   4.087   0.177   3.270  0.9222  0.1568  0.3327
10938WAT     H133216   4.114   0.268   3.277  1.8835 -0.1365  0.5846
10938WAT     H233217   3.991   0.180   3.267  0.9606  1.2010 -0.1499
10939WAT      O33218   1.748   0.595   4.148  0.6025 -0.2868  0.3148
10939WAT     H133219   1.838   0.595   4.180  0.5241  1.7433  0.6584
10939WAT     H233220   1.739   0.679   4.103 -1.0829 -0.5223  0.1565
10940WAT      O33221   5.831   5.592   4.430 -0.2988  0.5503 -0.0505
10940WAT     H133222   5.891   5.646   4.481 -0.6111  0.5510  0.3121
10940WAT     H233223   5.804   5.523   4.489  1.3819 -0.9988 -0.9855
10941WAT      O33224   0.719   3.974   2.681 -0.0112 -0.0355 -0.1298
10941WAT     H133225   0.686   3.886   2.665 -1.4400  0.5815 -0.7444
10941WAT     H233226   0.810   3.973   2.650 -0.8524 -0.5295 -2.7987
10942WAT      O33227   1.502   2.462   5.725 -0.0204  0.2384 -0.2219
10942WAT     H133228   1.456   2.408   5.789  0.0480  0.8014  0.3097
10942WAT     H233229   1.451   2.543   5.722  0.5953  0.6361 -0.0649
10943WAT      O33230   0.605   0.205   3.409  0.1769 -0.2931 -0.8568
10943WAT     H133231   0.676   0.210   3.346 -0.3121 -0.4593 -1.4308
10943WAT     H233232   0.566   0.292   3.409  0.6288 -0.0905 -0.2482
10944WAT      O33233   4.621   1.531   3.825  0.4075 -0.1769 -0.7962
10944WAT     H133234   4.677   1.500   3.753  1.3541 -1.9426  0.6041
10944WAT     H233235   4.585   1.451   3.863 -0.3601  0.7366  0.4660
10945WAT      O33236   4.946   3.202   1.332 -0.2111  0.5602  0.0079
10945WAT     H133237   4.945   3.109   1.311  0.3998  0.5844 -0.1633
10945WAT     H233238   4.902   3.208   1.417 -1.6269  0.3127 -0.6792
10946WAT      O33239   1.400   2.539   1.973 -0.1752  0.5242  0.2770
10946WAT     H133240   1.393   2.559   1.880 -0.3981  0.4730  0.2813
10946WAT     H233241   1.407   2.624   2.016 -1.0933  0.6014  0.2948
10947WAT      O33242   4.624   2.588   3.857  0.0109 -0.6687  0.1889
10947WAT     H133243   4.616   2.493   3.843 -1.7645 -0.4444 -0.5160
10947WAT     H233244   4.612   2.626   3.770 -2.3711  0.3300  0.8908
10948WAT      O33245   2.601   3.810   2.676 -0.6741 -0.0619 -0.1739
10948WAT     H133246   2.633   3.887   2.724  1.3270 -2.1785  2.1655
10948WAT     H233247   2.549   3.762   2.739 -0.8655 -1.2574 -1.1955
10949WAT      O33248   6.213   5.159   2.502 -0.0906 -0.1625 -0.3454
10949WAT     H133249   6.129   5.205   2.491  0.1557  0.7506  1.2698
10949WAT     H233250   6.224   5.152   2.597  1.7901 -0.0374 -0.5227
10950WAT      O33251   4.043   2.855   3.485  0.0883 -0.3578  0.4174
10950WAT     H133252   3.973   2.819   3.539 -0.9014  0.7828 -0.0757
10950WAT     H233253   4.119   2.858   3.543 -0.0809 -2.1577  0.7893
10951WAT      O33254   1.404   6.625   1.038  0.0175  0.0624  0.1442
10951WAT     H133255   1.356   6.703   1.065  1.6058  1.3403 -0.4998
10951WAT     H233256   1.466   6.609   1.110 -0.2413 -0.5721  0.2347
10952WAT      O33257   4.576   3.422   2.507  0.2093 -0.1218 -0.0459
10952WAT     H133258   4.486   3.426   2.474  0.1778 -0.9826 -0.0699
10952WAT     H233259   4.574   3.474   2.588 -0.2305  0.1259 -0.2132
10953WAT      O33260   7.594   1.669   5.203 -0.3251 -0.0892  0.1215
10953WAT     H133261   7.656   1.672   5.130 -1.5006  0.3890 -0.8853
10953WAT     H233262   7.522   1.614   5.171 -0.7872 -0.0083  0.9891
10954WAT      O33263   4.436   6.825   2.432 -0.6144  0.5119  0.2597
10954WAT     H133264   4.500   6.760   2.460  0.7056  0.5726 -2.2705
10954WAT     H233265   4.448   6.898   2.491 -0.9789 -0.8676  2.1334
10955WAT      O33266   0.097   0.133   5.421 -0.2757  0.2258 -0.1085
10955WAT     H133267   0.092   0.119   5.326 -2.3233 -0.1869  0.0244
10955WAT     H233268   0.046   0.061   5.458  0.1238  0.6440  1.3100
10956WAT      O33269   4.301   2.987   0.600 -0.3914 -0.6253  0.2056
10956WAT     H133270   4.287   3.017   0.690  2.4420 -0.3140  0.6339
10956WAT     H233271   4.368   2.918   0.608  2.1803  1.4062 -1.8165
10957WAT      O33272   2.803   5.646   4.240  0.1496  0.1866  1.1027
10957WAT     H133273   2.760   5.698   4.308 -0.7829 -0.8852  1.3619
10957WAT     H233274   2.891   5.629   4.275 -0.1795 -0.0003  1.8543
10958WAT      O33275   4.038   2.882   1.178 -0.3883 -0.7693  0.2183
10958WAT     H133276   4.030   2.839   1.092  0.9804 -0.7094  0.0415
10958WAT     H233277   4.131   2.878   1.198 -0.7008 -0.8963  1.7817
10959WAT      O33278   5.198   3.792   0.548 -0.1576 -0.1648  0.8032
10959WAT     H133279   5.252   3.738   0.606  2.1515 -0.3226 -1.3356
10959WAT     H233280   5.115   3.745   0.541  0.8649 -2.0807  1.0615
10960WAT      O33281   0.486   2.681   5.958 -0.2821  0.5271  0.3860
10960WAT     H133282   0.464   2.610   6.018  0.4908 -0.1940 -0.1513
10960WAT     H233283   0.461   2.648   5.872  3.3165 -0.6655 -0.3776
10961WAT      O33284   1.023   2.729   4.961 -0.1092 -0.1329  0.1575
10961WAT     H133285   0.955   2.738   4.894  1.1087 -0.4688 -1.1852
10961WAT     H233286   1.101   2.701   4.912  0.8179 -0.4356  1.7346
10962WAT      O33287   2.940   3.485   0.111  0.0596  0.0154  0.1376
10962WAT     H133288   2.994   3.557   0.144  0.0108  0.3377 -0.4702
10962WAT     H233289   2.963   3.478   0.018 -1.4169  0.5949 -0.2880
10963WAT      O33290   3.820   5.223   0.768 -0.4905  0.5711  0.1026
10963WAT     H133291   3.777   5.137   0.772 -0.3311  0.5014  0.3773
10963WAT     H233292   3.831   5.248   0.860 -2.2019  1.7381  0.0373
10964WAT      O33293   3.962   6.766   0.958 -0.1485 -0.7642 -0.4091
10964WAT     H133294   4.037   6.825   0.959 -0.7810  0.1349 -2.2914
10964WAT     H233295   3.927   6.772   0.869 -0.8596 -3.2224 -0.3538
10965WAT      O33296   1.289   4.010   0.681  0.0694  0.1200  0.1276
10965WAT     H133297   1.206   4.014   0.632  0.6437  1.6990 -0.7785
10965WAT     H233298   1.312   4.101   0.697  0.1513 -0.3152  3.0366
10966WAT      O33299   1.494   6.321   1.475 -0.0239 -0.4916 -0.1345
10966WAT     H133300   1.423   6.258   1.457  1.0105 -2.4708  2.0994
10966WAT     H233301   1.448   6.400   1.504 -1.3530 -0.9141 -0.9706
10967WAT      O33302   5.176   5.721   4.933  0.4992 -0.7575 -0.4394
10967WAT     H133303   5.213   5.809   4.924  2.2711 -1.4183 -0.0229
10967WAT     H233304   5.198   5.694   5.022 -1.4644 -1.0318  0.0236
10968WAT      O33305   4.978   2.716   5.250 -0.3203  0.7997 -0.1682
10968WAT     H133306   5.045   2.760   5.303 -0.5909  0.0437  0.8229
10968WAT     H233307   5.025   2.645   5.206 -0.6534 -0.4872  1.4563
10969WAT      O33308   6.592   4.279   5.317  0.1233  0.3018  0.3689
10969WAT     H133309   6.555   4.219   5.381  3.2163  0.7795  2.8676
10969WAT     H233310   6.605   4.360   5.365  0.0221  1.6178 -1.7105
10970WAT      O33311   5.725   2.230   3.734  0.2551 -0.7034 -0.5966
10970WAT     H133312   5.631   2.220   3.752 -0.2080  0.9323 -1.7899
10970WAT     H233313   5.739   2.325   3.738  1.1078 -0.5928 -3.6182
10971WAT      O33314   4.083   4.310   5.924 -0.0777  0.1033 -0.2668
10971WAT     H133315   4.165   4.342   5.886  0.2181  0.3363  0.5588
10971WAT     H233316   4.085   4.339   6.015 -0.2653 -1.4008  0.2367
10972WAT      O33317   0.059   5.287   0.002  0.5692  0.3374  1.0203
10972WAT     H133318   0.056   5.191   0.005  1.9846  0.1282 -1.2036
10972WAT     H233319   0.152   5.308   0.008  0.4760  1.3926 -0.6462
10973WAT      O33320   6.921   7.166   5.359  0.1150 -0.8136  0.6491
10973WAT     H133321   7.010   7.134   5.346  0.5701  0.5800  0.1727
10973WAT     H233322   6.876   7.147   5.277 -0.0715 -1.6050  0.9240
10974WAT      O33323   0.671   4.379   5.666  0.4531  0.1392  0.1293
10974WAT     H133324   0.669   4.468   5.700 -0.1047  1.1994 -2.4640
10974WAT     H233325   0.649   4.324   5.741  0.4532  2.1999  1.7081
10975WAT      O33326   0.179   4.026   5.667 -0.0737 -0.3086  0.2672
10975WAT     H133327   0.183   3.964   5.594  0.5620  1.0223 -0.8638
10975WAT     H233328   0.217   4.107   5.633 -1.4133  0.9107  1.5294
10976WAT      O33329   5.077   5.771   0.833 -0.1278  0.6241  0.0409
10976WAT     H133330   5.161   5.746   0.871 -1.0450  0.2820  1.9705
10976WAT     H233331   5.060   5.704   0.767  1.2219  0.8521 -0.5549
10977WAT      O33332   2.065   5.673   3.952 -0.4937  0.2466 -0.2801
10977WAT     H133333   2.158   5.664   3.972 -0.2542  1.2205 -0.8991
10977WAT     H233334   2.063   5.722   3.869 -1.5346 -0.4379 -0.6832
10978WAT      O33335   4.439   5.364   4.276  0.0813  0.4579 -1.0855
10978WAT     H133336   4.454   5.423   4.351 -0.3982 -1.7725  0.8871
10978WAT     H233337   4.346   5.374   4.256  0.0266  0.4607 -0.8331
10979WAT      O33338   1.475   5.907   1.368  0.3961 -0.3466  0.1838
10979WAT     H133339   1.408   5.885   1.432  0.9430  0.5449  1.0989
10979WAT     H233340   1.535   5.965   1.415  2.6256 -2.2141 -0.1417
10980WAT      O33341   4.987   6.639   0.075  0.3973 -0.1987  0.4797
10980WAT     H133342   5.012   6.547   0.059  0.1654 -0.3818  1.1232
10980WAT     H233343   4.954   6.670  -0.009  0.4212 -0.7273  0.2709
10981WAT      O33344   3.107   5.299   2.349 -0.0816  0.2329  0.1973
10981WAT     H133345   3.186   5.306   2.401 -0.6379 -2.3704  1.5818
10981WAT     H233346   3.035   5.296   2.413 -0.9440 -1.1149 -0.7594
10982WAT      O33347   5.716   7.165   0.876  0.0220 -0.4382 -0.1775
10982WAT     H133348   5.643   7.199   0.928  2.2332  0.2854  2.6662
10982WAT     H233349   5.762   7.105   0.934  2.3526 -0.0043 -1.4394
10983WAT      O33350   1.051   6.915   3.194 -0.1419 -0.2080 -0.0219
10983WAT     H133351   1.127   6.858   3.202  0.1916  0.2807  0.3796
10983WAT     H233352   1.025   6.934   3.284 -0.6566 -0.2584 -0.1544
10984WAT      O33353   3.064   3.527   5.723  0.2585 -0.2100 -0.0241
10984WAT     H133354   3.054   3.433   5.739 -0.7967  0.1737  1.7569
10984WAT     H233355   3.154   3.546   5.752  0.6552 -0.7297 -0.8603
10985WAT      O33356   2.380   2.334   3.809  0.1083  0.1056 -0.1238
10985WAT     H133357   2.429   2.416   3.812 -0.8836  0.7772 -1.3817
10985WAT     H233358   2.323   2.342   3.733 -1.2858 -1.0278  0.7318
10986WAT      O33359   4.540   6.263   3.930  0.2115  0.4363 -0.1431
10986WAT     H133360   4.457   6.281   3.885  0.0345 -0.3817 -0.1544
10986WAT     H233361   4.566   6.348   3.967 -0.0584  0.9393 -1.0767
10987WAT      O33362   0.975   4.374   0.387  0.0933 -0.2834  0.3423
10987WAT     H133363   0.974   4.344   0.478  0.6235  0.6066  0.6602
10987WAT     H233364   1.016   4.461   0.391 -3.5892  1.6844 -0.1207
10988WAT      O33365   2.802   5.335   3.825  0.0218 -0.6544  0.2126
10988WAT     H133366   2.774   5.407   3.881 -4.3207 -0.9329 -1.2507
10988WAT     H233367   2.894   5.321   3.848  0.2225  3.3014  2.6709
10989WAT      O33368   7.281   1.397   4.293  0.6040 -0.3617  0.1887
10989WAT     H133369   7.332   1.362   4.366 -0.0508  0.5737  1.1130
10989WAT     H233370   7.259   1.486   4.318  1.3382  0.3999 -1.6649
10990WAT      O33371   6.025   1.936   4.542  1.0948  0.4273 -1.1712
10990WAT     H133372   6.088   1.961   4.609 -0.1712 -0.5810  0.4675
10990WAT     H233373   5.946   1.985   4.563  0.2239 -0.9811 -1.0178
10991WAT      O33374   5.909   1.159   2.300  0.3661 -0.0165  0.4760
10991WAT     H133375   5.827   1.208   2.294  0.6896  0.4373 -0.4973
10991WAT     H233376   5.925   1.149   2.394 -0.4404  0.4968  0.6739
10992WAT      O33377   6.068   4.154   1.398  0.0907  0.2398 -0.1557
10992WAT     H133378   6.072   4.061   1.422 -0.6071  0.1255 -0.4679
10992WAT     H233379   6.049   4.198   1.481 -2.9566 -0.2160 -0.5012
10993WAT      O33380   1.135   6.827   1.358 -0.1575 -0.8175 -0.5782
10993WAT     H133381   1.099   6.769   1.424  0.9172  0.3117  1.0743
10993WAT     H233382   1.132   6.914   1.398  2.7275 -0.4289 -1.0147
10994WAT      O33383   7.481   1.778   3.304 -0.2336  0.0879 -0.0157
10994WAT     H133384   7.527   1.792   3.388 -0.1663 -2.6551  0.4792
10994WAT     H233385   7.405   1.726   3.327 -1.0551  0.5848 -1.5051
10995WAT      O33386   0.904   6.780   2.547  0.0321  0.1261 -0.1945
10995WAT     H133387   0.964   6.741   2.483  1.2501  1.4434  0.0687
10995WAT     H233388   0.947   6.765   2.632 -1.1771 -0.9147  0.2696
10996WAT      O33389   2.663   2.376   3.381 -0.5495  0.3106 -0.1180
10996WAT     H133390   2.602   2.440   3.416  0.9132  1.2364  0.8781
10996WAT     H233391   2.612   2.295   3.373 -2.4106  1.5382 -1.3125
10997WAT      O33392   3.334   1.465   2.951 -0.2851 -0.2313 -0.2845
10997WAT     H133393   3.348   1.463   3.046  0.8030 -1.0394 -0.4385
10997WAT     H233394   3.417   1.496   2.915  0.0890 -2.0359 -1.0725
10998WAT      O33395   1.597   4.376   4.425 -0.1185  0.0901 -0.2352
10998WAT     H133396   1.590   4.293   4.473 -1.1710 -0.4728 -1.3204
10998WAT     H233397   1.551   4.360   4.343 -2.3756  2.4311  0.4526
10999WAT      O33398   1.339   1.845   5.451  0.6918  0.6990  0.3424
10999WAT     H133399   1.352   1.933   5.416  1.9645  0.3198 -0.2167
10999WAT     H233400   1.421   1.825   5.496  1.2395 -0.9323 -1.2501
11000WAT      O33401   4.735   2.906   3.481  0.0738 -0.0279  0.3328
11000WAT     H133402   4.825   2.885   3.457  0.0438 -0.4570  0.5879
11000WAT     H233403   4.709   2.974   3.418  0.6947  0.3734  0.4975
11001WAT      O33404   2.292   6.432   2.907 -0.4802  0.5600  0.2776
11001WAT     H133405   2.271   6.498   2.973 -0.0102  0.6090  0.3845
11001WAT     H233406   2.335   6.480   2.836 -1.0708  0.5219 -0.1103
11002WAT      O33407   3.358   5.511   0.145  0.1952 -0.0283 -0.0382
11002WAT     H133408   3.312   5.492   0.227 -0.5630 -0.3263 -0.5323
11002WAT     H233409   3.335   5.602   0.126  0.6648  0.1594  0.2599
11003WAT      O33410   6.230   2.916   4.764 -0.2616 -0.0809  0.3071
11003WAT     H133411   6.270   2.891   4.847 -1.6678 -0.6916  0.8430
11003WAT     H233412   6.232   3.012   4.764 -3.9004  0.2131  3.0536
11004WAT      O33413   7.645   1.494   5.683  0.0743 -0.0788 -0.3046
11004WAT     H133414   7.639   1.505   5.589  1.4566  0.2106 -0.3838
11004WAT     H233415   7.642   1.399   5.696  2.0930 -0.2652 -0.8673
11005WAT      O33416   0.089   3.293   3.519  0.4554 -0.1168  0.0390
11005WAT     H133417   0.043   3.212   3.542 -0.7355  0.3315 -0.6464
11005WAT     H233418   0.178   3.280   3.552 -0.0814 -1.1236  1.2037
11006WAT      O33419   1.721   0.684   2.893  0.3816 -0.8754 -0.1830
11006WAT     H133420   1.681   0.767   2.869  1.5501  0.0612  0.9576
11006WAT     H233421   1.709   0.678   2.988  3.3639 -0.2249  0.3529
11007WAT      O33422   4.560   1.516   3.166  0.1317 -1.0545 -0.8232
11007WAT     H133423   4.532   1.572   3.238 -1.7796  1.6536 -3.4388
11007WAT     H233424   4.518   1.431   3.184 -1.0215 -0.1941  0.7646
11008WAT      O33425   7.487   3.000   3.741  0.2306 -0.2226 -0.0572
11008WAT     H133426   7.441   3.083   3.733  0.4374 -0.0209  0.7436
11008WAT     H233427   7.417   2.937   3.760 -0.0318 -0.3953 -1.5050
11009WAT      O33428   5.293   0.001   1.758  0.0475 -0.5328  0.2008
11009WAT     H133429   5.379   0.029   1.726  0.6033 -1.0866  1.1698
11009WAT     H233430   5.258   0.078   1.802 -0.2389 -0.1096 -0.7462
11010WAT      O33431   0.598   3.152   3.779 -0.1826  0.0013  0.8174
11010WAT     H133432   0.609   3.140   3.874 -1.5810  0.9118  1.1297
11010WAT     H233433   0.581   3.064   3.746 -3.0944  0.0175  1.9736
11011WAT      O33434   7.011   4.003   3.310  0.2255 -0.1213 -0.2320
11011WAT     H133435   6.930   3.993   3.361  0.4394 -0.9049 -0.0321
11011WAT     H233436   7.080   4.005   3.376  0.5380 -1.4974 -0.4906
11012WAT      O33437   1.612   2.145   1.118  0.4013 -0.9337  0.9612
11012WAT     H133438   1.548   2.196   1.167  1.6237  0.1131  1.5089
11012WAT     H233439   1.673   2.112   1.184  1.8219  0.1394  0.2117
11013WAT      O33440   5.864   3.021   5.989 -0.6916 -0.1257  0.0621
11013WAT     H133441   5.945   2.971   5.999 -0.3977  0.3917  0.3043
11013WAT     H233442   5.795   2.958   6.011 -0.3377 -0.4740  0.1975
11014WAT      O33443   3.736   7.181   4.774  0.2485 -0.5190 -0.7468
11014WAT     H133444   3.811   7.122   4.782  0.2817 -0.4442 -0.5029
11014WAT     H233445   3.739   7.235   4.853 -0.0882 -0.5457 -0.7108
11015WAT      O33446   2.696   4.323   0.788 -0.3164  0.2588 -0.1541
11015WAT     H133447   2.785   4.340   0.758 -0.6403 -0.8123 -1.9135
11015WAT     H233448   2.706   4.291   0.878  1.0201  0.5311 -0.1892
11016WAT      O33449   2.029   0.600   1.840  0.3733  0.2582  0.4790
11016WAT     H133450   2.086   0.657   1.789 -0.9908  0.9314 -0.3699
11016WAT     H233451   2.029   0.638   1.928  1.2989  0.1671  0.5318
11017WAT      O33452   3.870   1.118   6.005  0.3073  0.1534 -0.2686
11017WAT     H133453   3.845   1.075   5.923 -1.4591  1.0130 -0.2269
11017WAT     H233454   3.823   1.070   6.073 -0.5778  1.2400 -0.0840
11018WAT      O33455   2.358   1.908   2.520  0.1096 -0.6970 -0.0138
11018WAT     H133456   2.266   1.935   2.520 -0.0287 -1.0097  2.1423
11018WAT     H233457   2.404   1.977   2.568  0.8083 -1.0868 -0.1052
11019WAT      O33458   6.864   1.545   2.470  0.0978 -0.4680  0.3007
11019WAT     H133459   6.875   1.640   2.463  1.0313 -0.5819  0.1260
11019WAT     H233460   6.902   1.511   2.390  0.4634 -1.0406  0.7133
11020WAT      O33461   4.966   0.928   5.257 -0.3119  0.5057 -0.0892
11020WAT     H133462   4.958   0.843   5.300  2.2114 -0.0332 -0.5449
11020WAT     H233463   5.026   0.977   5.311 -1.9262  2.1602  0.2936
11021WAT      O33464   3.167   3.825   4.467  0.2130  0.1063 -0.2577
11021WAT     H133465   3.151   3.731   4.478  2.0209 -0.1574  0.4348
11021WAT     H233466   3.229   3.831   4.394 -0.1649  0.7999 -0.5340
11022WAT      O33467   6.555   5.144   2.749  0.0292 -0.0357  0.6469
11022WAT     H133468   6.526   5.054   2.731  0.8401 -0.4500  1.3194
11022WAT     H233469   6.507   5.169   2.828 -1.6750  0.8729 -0.6092
11023WAT      O33470   4.061   0.043   0.446 -0.5960  0.6133 -0.0706
11023WAT     H133471   4.016   0.127   0.440 -0.1688  0.7903 -1.1114
11023WAT     H233472   4.104   0.044   0.532 -2.2740  0.5703  0.8083
11024WAT      O33473   2.485   5.839   3.411 -0.2148 -0.7755  0.1644
11024WAT     H133474   2.396   5.805   3.424 -0.6103  0.5449  1.1197
11024WAT     H233475   2.542   5.770   3.445 -0.9348 -1.1242  0.6982
11025WAT      O33476   5.134   4.779   2.229  0.0403 -0.3494 -0.8296
11025WAT     H133477   5.104   4.760   2.318  0.1758  1.1853 -0.4149
11025WAT     H233478   5.108   4.704   2.177 -1.2325 -0.6763  0.2489
11026WAT      O33479   5.235   4.052   0.405 -0.1543  0.1452  0.3061
11026WAT     H133480   5.209   4.130   0.454 -1.6908 -0.6690  0.8506
11026WAT     H233481   5.238   3.982   0.470  1.7979 -0.1717 -0.0680
11027WAT      O33482   3.853   3.561   3.422  0.5942  0.2457  0.0642
11027WAT     H133483   3.926   3.622   3.438  1.2088 -1.0002  2.5895
11027WAT     H233484   3.894   3.474   3.429 -0.7580 -0.4698 -0.6846
11028WAT      O33485   2.445   5.347   3.956  0.3402  0.0465  0.3782
11028WAT     H133486   2.349   5.351   3.953  0.2443 -1.6587  0.2875
11028WAT     H233487   2.464   5.283   4.023  1.3838 -0.6835 -0.5765
11029WAT      O33488   0.352   5.739   0.615  0.3550  0.2310 -0.0195
11029WAT     H133489   0.312   5.685   0.684  0.8032 -1.6212 -1.1587
11029WAT     H233490   0.423   5.785   0.659 -0.9876  1.1243  1.3240
11030WAT      O33491   5.904   0.396   2.404  0.5217 -0.0280 -0.2963
11030WAT     H133492   5.817   0.356   2.405 -0.6539  2.3593  0.4193
11030WAT     H233493   5.925   0.406   2.311 -0.5929  0.5579 -0.4987
11031WAT      O33494   1.422   5.410   3.220  0.2979 -0.5900 -0.1341
11031WAT     H133495   1.424   5.389   3.313 -1.8562 -1.7736 -0.2801
11031WAT     H233496   1.432   5.506   3.217 -0.7839 -0.3805  1.4276
11032WAT      O33497   1.018   7.207   5.538  0.1317  0.1999 -0.0515
11032WAT     H133498   0.933   7.177   5.504  0.1087  0.6330 -0.3835
11032WAT     H233499   1.070   7.127   5.545 -0.2681 -0.0563  0.0515
11033WAT      O33500   4.972   0.251   3.866  0.4997 -0.2244 -0.4001
11033WAT     H133501   4.886   0.290   3.852  0.0296 -1.5869 -1.5967
11033WAT     H233502   4.953   0.162   3.896  1.3976 -1.2377 -2.5938
11034WAT      O33503   2.544   1.890   4.782  0.8550 -0.1147  0.0659
11034WAT     H133504   2.531   1.957   4.849  0.1612 -0.2931  0.1173
11034WAT     H233505   2.495   1.923   4.706  0.9201 -0.3305 -0.0707
11035WAT      O33506   2.798   6.390   4.332  0.1633 -0.5797  0.4512
11035WAT     H133507   2.819   6.420   4.420  1.3863 -0.8169  0.2621
11035WAT     H233508   2.808   6.468   4.277  2.0762 -1.0019  0.1471
11036WAT      O33509   0.336   4.837   5.742 -0.5257 -0.4257 -0.3356
11036WAT     H133510   0.253   4.861   5.783 -0.6095  1.6985 -1.6130
11036WAT     H233511   0.400   4.839   5.812 -1.0037  1.1343  0.0757
11037WAT      O33512   4.549   5.254   1.150  0.8260  0.3759  0.0326
11037WAT     H133513   4.627   5.247   1.205  1.1197  0.8765 -0.3167
11037WAT     H233514   4.497   5.324   1.189  0.5656  0.0684  0.2431
11038WAT      O33515   5.388   4.206   4.756 -0.0804  0.2159  0.3331
11038WAT     H133516   5.441   4.202   4.835 -0.3201 -0.8044  0.4579
11038WAT     H233517   5.450   4.189   4.685  0.0684  0.7692  0.3271
11039WAT      O33518   7.014   1.777   3.291 -0.6907 -0.0286 -0.2501
11039WAT     H133519   6.963   1.739   3.362 -1.5650  0.6135 -0.5121
11039WAT     H233520   7.004   1.872   3.302 -0.7331  0.0828 -1.1470
11040WAT      O33521   2.921   2.189   5.233  0.3537 -0.2422 -0.3198
11040WAT     H133522   2.993   2.252   5.241  1.1499 -1.1371 -0.2611
11040WAT     H233523   2.962   2.111   5.196 -0.3884 -1.1118  0.6625
11041WAT      O33524   3.039   1.097   1.855 -0.1217  0.2071  0.1019
11041WAT     H133525   2.975   1.148   1.904  1.5127  1.1198  1.3783
11041WAT     H233526   3.111   1.082   1.917  2.3867  2.0294 -2.1237
11042WAT      O33527   5.924   1.609   0.861 -0.1557  0.3274  0.0374
11042WAT     H133528   5.883   1.550   0.923 -0.9775 -0.2309 -1.0014
11042WAT     H233529   6.018   1.605   0.882 -0.1514 -1.5591 -0.1558
11043WAT      O33530   4.523   3.529   4.689 -0.0494 -0.0510 -0.6051
11043WAT     H133531   4.534   3.453   4.746 -1.7995 -0.0498 -0.2067
11043WAT     H233532   4.535   3.604   4.747 -1.8487 -0.0495 -0.1657
11044WAT      O33533   0.997   3.628   0.302 -0.0770 -0.6060  0.6395
11044WAT     H133534   0.929   3.569   0.269 -0.4397 -0.1118  0.4847
11044WAT     H233535   0.949   3.693   0.353  0.3979 -0.8730  1.4321
11045WAT      O33536   6.008   1.329   3.764 -0.4144 -0.2150 -0.2762
11045WAT     H133537   5.938   1.394   3.775  0.8950  1.4466 -1.3442
11045WAT     H233538   5.988   1.287   3.680  0.6369  1.3266 -1.3445
11046WAT      O33539   1.787   5.562   1.902  0.1923 -0.1496  0.5939
11046WAT     H133540   1.829   5.497   1.957 -1.7170 -1.2914  0.7966
11046WAT     H233541   1.723   5.604   1.959  0.8685  1.4124  0.2547
11047WAT      O33542   0.604   1.618   2.756 -0.1196  0.2720  0.1330
11047WAT     H133543   0.686   1.635   2.709  0.1099 -0.6249  0.1914
11047WAT     H233544   0.618   1.655   2.843  0.1032  0.4038  0.0420
11048WAT      O33545   2.326   4.685   0.497  0.4766  0.1530  0.1496
11048WAT     H133546   2.381   4.667   0.420  2.5470  0.2984  1.5044
11048WAT     H233547   2.340   4.609   0.554 -1.3348 -0.1314  0.2550
11049WAT      O33548   6.766   2.021   2.706  0.1333  0.0122 -0.0052
11049WAT     H133549   6.828   1.967   2.755  1.6354  1.4832 -0.2415
11049WAT     H233550   6.685   2.018   2.758  0.2691 -2.1093  0.1864
11050WAT      O33551   0.617   7.204   3.176 -0.2183  1.2281 -0.1750
11050WAT     H133552   0.657   7.124   3.212  1.1186  1.7831 -0.3550
11050WAT     H233553   0.567   7.240   3.250  1.7363  1.8594  0.9211
11051WAT      O33554   1.250   2.392   4.161  1.1535  0.1895  0.5504
11051WAT     H133555   1.288   2.398   4.248  3.1407  2.0890 -0.3428
11051WAT     H233556   1.184   2.462   4.159  1.8685  0.8750  0.2329
11052WAT      O33557   2.112   3.405   4.266 -0.5554  0.0610 -0.3898
11052WAT     H133558   2.171   3.439   4.334 -0.0054  3.0623 -2.1637
11052WAT     H233559   2.026   3.401   4.307  0.1015 -0.0942  1.0057
11053WAT      O33560   7.652   1.425   4.044  0.7321 -0.0107  0.9964
11053WAT     H133561   7.665   1.486   4.116  0.7199 -0.3826  1.3184
11053WAT     H233562   7.649   1.480   3.966 -0.2405  0.4869  1.3729
11054WAT      O33563   1.403   5.548   5.993  0.4819 -0.1343 -0.5903
11054WAT     H133564   1.428   5.496   6.070  1.3540  1.1673  0.0562
11054WAT     H233565   1.477   5.607   5.981  0.6372 -0.7131 -2.8293
11055WAT      O33566   3.808   0.477   0.642 -0.4254  0.6664 -0.7260
11055WAT     H133567   3.849   0.520   0.717  0.5440  1.5674 -1.7412
11055WAT     H233568   3.728   0.438   0.677 -0.0724  1.2096  0.7337
11056WAT      O33569   2.154   5.069   1.440 -0.0971 -0.3898  0.4604
11056WAT     H133570   2.142   5.016   1.361 -0.8119 -1.8730  1.5008
11056WAT     H233571   2.119   5.155   1.417 -0.2642 -0.7815 -0.8339
11057WAT      O33572   7.347   1.316   1.934 -0.0235  0.2365  0.3789
11057WAT     H133573   7.288   1.241   1.936 -0.3601  0.4866  0.0103
11057WAT     H233574   7.435   1.278   1.939 -0.1225 -0.2865 -1.1980
11058WAT      O33575   6.250   5.863   6.245 -0.1940  0.7217 -0.0104
11058WAT     H133576   6.345   5.867   6.260 -0.0484  0.7465 -0.9249
11058WAT     H233577   6.221   5.786   6.294  0.3584  0.4793 -0.0630
11059WAT      O33578   6.882   0.455   0.783 -0.6181 -0.2188  0.4130
11059WAT     H133579   6.787   0.461   0.796 -0.4628  0.4249  1.3204
11059WAT     H233580   6.903   0.529   0.726 -0.9529 -1.6759 -1.7621
11060WAT      O33581   0.116   3.888   2.514  0.4562  0.4871  0.2725
11060WAT     H133582   0.097   3.982   2.518 -0.5017  0.3464 -0.7451
11060WAT     H233583   0.193   3.882   2.457 -0.2336  0.5731 -0.6940
11061WAT      O33584   3.930   5.549   0.330 -0.2294 -0.1343 -0.5886
11061WAT     H133585   3.905   5.514   0.415  1.5401  0.1505  0.0740
11061WAT     H233586   3.900   5.640   0.332 -0.8600 -0.3324 -0.5921
11062WAT      O33587   4.328   6.261   2.719  0.1359 -0.6797 -0.2251
11062WAT     H133588   4.391   6.191   2.700 -0.4096 -1.5196  0.9367
11062WAT     H233589   4.250   6.216   2.751 -0.3514  0.4517  0.2528
11063WAT      O33590   0.867   2.742   5.804  0.1867  0.1726  0.1503
11063WAT     H133591   0.858   2.771   5.895  1.0797 -1.0212  0.6555
11063WAT     H233592   0.780   2.753   5.766 -0.6271 -0.8012  1.6236
11064WAT      O33593   1.646   2.956   2.771  0.1378 -0.1598 -0.1509
11064WAT     H133594   1.643   2.930   2.863  0.0359 -0.9780 -0.3825
11064WAT     H233595   1.711   3.026   2.768  0.2569 -0.2365  0.5160
11065WAT      O33596   3.356   5.092   2.244 -0.1465  0.1685  0.0221
11065WAT     H133597   3.341   5.153   2.316  0.0807  0.5066 -0.2152
11065WAT     H233598   3.369   5.007   2.287 -0.2043  0.3321  0.3658
11066WAT      O33599   5.681   5.138   4.516  0.4096  0.0406  0.4925
11066WAT     H133600   5.670   5.122   4.610  0.6083 -0.4202  0.4407
11066WAT     H233601   5.765   5.097   4.495  1.7214  2.4409  0.6564
11067WAT      O33602   2.398   3.086   5.371  0.0648  0.4490  0.2454
11067WAT     H133603   2.329   3.089   5.305  0.8063  0.0882 -0.5761
11067WAT     H233604   2.479   3.075   5.320  0.5674 -0.7973  1.2508
11068WAT      O33605   1.517   1.169   1.760  0.9843  0.0386 -0.1886
11068WAT     H133606   1.434   1.147   1.719  0.5740 -0.5766  0.9364
11068WAT     H233607   1.505   1.257   1.795 -0.3294 -1.1929  2.7203
11069WAT      O33608   6.041   4.226   4.363  0.4094  0.3471  0.0040
11069WAT     H133609   6.022   4.310   4.405  0.9522 -0.1515  1.2934
11069WAT     H233610   6.079   4.250   4.278 -0.2093  1.3869 -0.0008
11070WAT      O33611   1.450   6.482   4.685 -0.2309  0.1598  0.5074
11070WAT     H133612   1.484   6.393   4.697 -1.0042  0.0347  1.9992
11070WAT     H233613   1.358   6.469   4.661 -1.0220  0.5325  3.0818
11071WAT      O33614   5.725   1.307   0.856 -0.1645 -0.8523  0.1144
11071WAT     H133615   5.683   1.282   0.774 -0.9183  1.3421 -0.2295
11071WAT     H233616   5.806   1.255   0.858  0.3980 -0.2221 -2.5482
11072WAT      O33617   7.487   4.486   5.557  0.0676  0.0280 -0.0893
11072WAT     H133618   7.542   4.471   5.634 -1.7470 -1.0947  1.0592
11072WAT     H233619   7.469   4.580   5.558  1.1627  0.2524  0.0459
11073WAT      O33620   5.674   0.173   0.510  0.2559  0.3066 -0.2566
11073WAT     H133621   5.591   0.219   0.519 -2.7987 -4.1633 -1.6569
11073WAT     H233622   5.709   0.168   0.599 -1.8134  1.0018  0.6578
11074WAT      O33623   2.874   5.476   2.925 -0.0142 -0.4189  0.1654
11074WAT     H133624   2.789   5.504   2.960 -0.0539  0.6676 -0.7582
11074WAT     H233625   2.869   5.496   2.832  1.2210 -0.4597  0.0814
11075WAT      O33626   1.674   1.918   2.435  0.4528 -0.2459 -0.3350
11075WAT     H133627   1.694   1.978   2.363 -1.1262  1.0268  0.2379
11075WAT     H233628   1.731   1.947   2.506  0.4309 -0.0857 -0.3823
11076WAT      O33629   3.643   2.474   6.214 -0.0458 -0.8364  0.0523
11076WAT     H133630   3.673   2.399   6.163 -0.0471 -0.3651 -0.6524
11076WAT     H233631   3.637   2.546   6.151  0.5701 -0.0718  0.8256
11077WAT      O33632   2.591   7.013   1.731  0.3309 -0.3710  0.1333
11077WAT     H133633   2.557   6.966   1.808  1.1858  2.3031  2.3283
11077WAT     H233634   2.682   6.985   1.724  0.8501  0.8412  1.4595
11078WAT      O33635   1.209   0.810   4.458 -0.3098 -0.2756 -0.4427
11078WAT     H133636   1.161   0.879   4.504 -0.0084 -0.1942 -0.2491
11078WAT     H233637   1.177   0.815   4.368  0.9868  1.2901 -0.8484
11079WAT      O33638   7.255   4.780   2.030  0.4659  0.3117  0.0257
11079WAT     H133639   7.205   4.704   2.000 -0.5639 -0.3172  2.9373
11079WAT     H233640   7.338   4.744   2.061  0.6122  0.5852 -0.0446
11080WAT      O33641   0.294   2.499   0.892 -0.4119 -0.0665 -0.0041
11080WAT     H133642   0.297   2.483   0.797 -1.1008 -0.1218 -0.0194
11080WAT     H233643   0.247   2.582   0.900  1.6863  1.1674  0.1688
11081WAT      O33644   3.948   1.706   2.374  0.3679  0.4310 -0.4777
11081WAT     H133645   3.854   1.723   2.363 -0.3182 -0.7575  2.4587
11081WAT     H233646   3.966   1.735   2.464  1.9320 -2.6843  0.3208
11082WAT      O33647   1.616   6.863   0.882  0.2462 -0.0206  0.0704
11082WAT     H133648   1.695   6.917   0.882  0.0811  0.2601  1.7685
11082WAT     H233649   1.560   6.901   0.949 -0.5546 -1.3357  0.1842
11083WAT      O33650   6.517   6.701   5.483  0.2602 -0.3439 -0.0944
11083WAT     H133651   6.567   6.743   5.413  0.2679 -2.0976 -1.2080
11083WAT     H233652   6.482   6.773   5.535  0.6562  1.0034 -1.6353
11084WAT      O33653   4.734   0.889   5.012 -0.7129  0.4633 -0.1875
11084WAT     H133654   4.638   0.888   5.019 -0.9704 -0.7871 -2.5901
11084WAT     H233655   4.752   0.845   4.929  2.0148 -0.0042  0.5559
11085WAT      O33656   7.319   3.212   0.594  0.3614 -0.0997 -0.2011
11085WAT     H133657   7.305   3.250   0.681  1.9820 -2.0662  1.0312
11085WAT     H233658   7.374   3.135   0.611 -1.0862 -1.8148 -2.7478
11086WAT      O33659   1.309   5.885   4.195  0.1463 -0.0343  0.2495
11086WAT     H133660   1.388   5.934   4.215  1.0856 -1.0392 -0.8583
11086WAT     H233661   1.279   5.851   4.279  1.7521 -0.8855  0.5103
11087WAT      O33662   4.901   3.151   0.333 -0.0175  0.0075 -0.4014
11087WAT     H133663   4.882   3.243   0.353 -0.4915 -0.3152  0.7387
11087WAT     H233664   4.994   3.151   0.308  0.1576  0.7052  0.1970
11088WAT      O33665   3.999   0.522   4.880  0.1174  0.2794  0.8210
11088WAT     H133666   4.001   0.464   4.956 -1.6787  0.8501  1.3411
11088WAT     H233667   3.912   0.561   4.882 -0.0519  0.1604 -1.6685
11089WAT      O33668   6.995   0.547   4.234 -0.3863 -0.1777  0.2629
11089WAT     H133669   7.045   0.587   4.164 -0.0199 -0.5612  0.3058
11089WAT     H233670   6.943   0.619   4.271 -1.4070 -0.1806 -1.1004
11090WAT      O33671   0.564   0.199   3.679  0.2622  0.1686 -0.0789
11090WAT     H133672   0.600   0.184   3.591 -0.4353 -1.2217 -0.1454
11090WAT     H233673   0.634   0.245   3.725  1.3972 -0.7898 -0.7796
11091WAT      O33674   0.967   3.774   0.704 -0.6030  0.1059  0.0864
11091WAT     H133675   0.997   3.766   0.794 -1.4595  1.1676  0.4887
11091WAT     H233676   1.014   3.850   0.669 -3.3896  2.4505  1.0466
11092WAT      O33677   4.150   2.518   3.453 -0.4440  1.1191 -0.2559
11092WAT     H133678   4.215   2.509   3.523 -0.3588 -0.8350 -0.5263
11092WAT     H233679   4.190   2.577   3.390  1.0113  0.0724 -0.3394
11093WAT      O33680   4.467   4.670   5.314 -0.0718  0.0815  0.3747
11093WAT     H133681   4.476   4.619   5.234 -0.5536  0.8190 -0.1717
11093WAT     H233682   4.549   4.721   5.319 -0.0283  0.0123  0.3651
11094WAT      O33683   3.180   0.628   4.708 -0.4222  0.1258  0.8496
11094WAT     H133684   3.187   0.655   4.799 -0.4883 -0.2923  0.9849
11094WAT     H233685   3.266   0.645   4.670  0.1588 -1.3304  1.4596
11095WAT      O33686   4.902   3.365   3.152 -0.0580  1.0495  0.0697
11095WAT     H133687   4.901   3.269   3.157 -2.2747  1.0544  0.3354
11095WAT     H233688   4.979   3.385   3.098 -0.4601 -0.9436 -1.3492
11096WAT      O33689   6.304   6.126   4.899 -0.0631 -0.0287 -0.2577
11096WAT     H133690   6.304   6.041   4.943  0.2918 -0.7970 -1.7022
11096WAT     H233691   6.284   6.189   4.969 -2.6086 -1.4835  0.4618
11097WAT      O33692   6.260   5.004   1.237 -0.1690 -0.1823 -0.5687
11097WAT     H133693   6.171   5.030   1.261  0.4333  2.5291 -0.8932
11097WAT     H233694   6.249   4.937   1.170 -1.9406 -0.3812 -0.1209
11098WAT      O33695   3.522   5.913   1.797 -0.0374  0.4673  0.3360
11098WAT     H133696   3.454   5.862   1.753 -0.1811 -0.2217  1.3455
11098WAT     H233697   3.565   5.852   1.855  1.8556  0.7425 -0.6797
11099WAT      O33698   1.906   1.278   6.126  0.0281 -0.1385  0.6458
11099WAT     H133699   1.957   1.328   6.190 -0.2353 -1.0689  1.6047
11099WAT     H233700   1.844   1.227   6.178 -1.0876  0.0629 -0.4323
11100WAT      O33701   4.627   0.490   5.771 -0.0304  0.3450  0.7400
11100WAT     H133702   4.606   0.576   5.807  1.6287  1.4553 -0.7354
11100WAT     H233703   4.667   0.443   5.843  1.2520  1.7195  0.9769
11101WAT      O33704   7.025   0.835   3.778  0.1679 -0.1386 -0.1931
11101WAT     H133705   7.101   0.888   3.755  0.6144 -0.3752  0.7063
11101WAT     H233706   6.953   0.898   3.786  0.0265 -0.0145 -1.9565
11102WAT      O33707   1.440   0.667   2.761 -0.4236  0.2440  0.5598
11102WAT     H133708   1.386   0.668   2.840 -2.1994 -0.7825 -0.5949
11102WAT     H233709   1.512   0.607   2.782 -0.6631  0.2689  1.5040
11103WAT      O33710   7.615   3.061   3.515 -0.0172 -0.0275  0.1211
11103WAT     H133711   7.598   3.009   3.594  0.8931 -0.2604  0.1829
11103WAT     H233712   7.620   2.996   3.445  3.0300 -0.3413  0.4753
11104WAT      O33713   6.735   4.814   5.434 -0.4788 -0.1661 -0.4361
11104WAT     H133714   6.802   4.762   5.476 -1.7450 -1.5562 -0.0373
11104WAT     H233715   6.687   4.855   5.506 -2.2510 -2.0416 -0.4638
11105WAT      O33716   1.849   2.331   1.521  0.0013 -0.0811 -0.1994
11105WAT     H133717   1.775   2.367   1.571  0.4856  1.5061 -0.5523
11105WAT     H233718   1.810   2.302   1.439 -0.3713 -0.0828 -0.0259
11106WAT      O33719   3.645   5.461   3.797  0.5264 -0.3295  0.0576
11106WAT     H133720   3.630   5.516   3.874  0.9614 -0.7559  0.4559
11106WAT     H233721   3.737   5.436   3.803  0.4924 -0.5969 -0.4549
11107WAT      O33722   1.607   4.525   0.616  0.1851  0.4665  0.2940
11107WAT     H133723   1.521   4.516   0.658 -0.1557  0.2163 -0.4262
11107WAT     H233724   1.651   4.442   0.633 -0.1172  0.1989 -0.1769
11108WAT      O33725   1.372   6.370   3.726 -0.2533  0.2309  0.2059
11108WAT     H133726   1.366   6.403   3.816 -1.2259 -0.3423  0.3697
11108WAT     H233727   1.286   6.389   3.688 -0.7782 -1.8290  0.2307
11109WAT      O33728   3.103   5.830   3.075  0.4072  0.3309 -0.6228
11109WAT     H133729   3.092   5.839   2.980  1.3513  2.6674 -0.5861
11109WAT     H233730   3.024   5.871   3.111 -0.8688 -2.2047 -0.3262
11110WAT      O33731   1.394   3.703   5.204 -0.2073 -0.6168  0.7014
11110WAT     H133732   1.485   3.724   5.182 -0.1633 -1.0805  0.4289
11110WAT     H233733   1.393   3.607   5.210 -0.7577 -0.6330  0.3422
11111WAT      O33734   4.940   2.849   0.738 -0.3826 -0.3477 -0.6491
11111WAT     H133735   4.880   2.776   0.723  0.4663 -0.9283 -1.3498
11111WAT     H233736   4.886   2.918   0.777 -1.6251 -0.6313 -1.7982
11112WAT      O33737   4.344   6.926   6.174 -0.2992 -0.6378  0.4681
11112WAT     H133738   4.275   6.879   6.221  0.1379  0.9664  2.9109
11112WAT     H233739   4.416   6.931   6.237  1.3569 -0.6017 -1.3379
11113WAT      O33740   1.510   4.695   1.983  0.2158 -0.2718  0.0758
11113WAT     H133741   1.541   4.661   1.900  2.2684 -0.7524  0.9771
11113WAT     H233742   1.525   4.624   2.046  1.2239  0.9675  1.3176
11114WAT      O33743   3.881   2.789   3.226  0.1842 -0.2586 -0.0475
11114WAT     H133744   3.858   2.849   3.297  1.2838  0.2432 -0.0939
11114WAT     H233745   3.875   2.702   3.265  0.3260 -0.0166  0.5262
11115WAT      O33746   1.665   4.934   6.076  0.2016  0.6562 -0.0749
11115WAT     H133747   1.639   5.026   6.077 -0.1636  0.5706  1.8107
11115WAT     H233748   1.583   4.886   6.065  0.0670  0.5100  1.4139
11116WAT      O33749   0.601   4.215   5.888  0.3609 -0.0936 -0.0134
11116WAT     H133750   0.645   4.144   5.936 -0.8971 -0.9503 -0.0820
11116WAT     H233751   0.554   4.264   5.956  0.1681 -0.1167 -0.1310
11117WAT      O33752   2.023   0.408   3.311 -0.1252 -0.3480  0.5019
11117WAT     H133753   2.042   0.338   3.249  2.1397 -0.6754  1.4683
11117WAT     H233754   2.084   0.478   3.287 -0.8855  0.4608  0.8822
11118WAT      O33755   1.215   6.409   0.364  0.0538  0.7454  0.1776
11118WAT     H133756   1.310   6.395   0.356  0.0451  0.2258  0.9402
11118WAT     H233757   1.196   6.397   0.457 -0.4831  2.6767  0.3598
11119WAT      O33758   5.155   4.276   0.518  0.0459  0.0998 -0.1909
11119WAT     H133759   5.127   4.245   0.604 -1.1355  0.6491 -0.3595
11119WAT     H233760   5.145   4.371   0.523  1.3030  0.2712 -0.4902
11120WAT      O33761   4.631   3.099   4.153  0.3338  0.4550  0.9094
11120WAT     H133762   4.723   3.074   4.138 -0.7509 -3.6652 -0.1478
11120WAT     H233763   4.632   3.144   4.237  3.4381  1.8031  0.3233
11121WAT      O33764   2.608   0.123   4.996 -0.2481  0.1338 -0.3779
11121WAT     H133765   2.699   0.138   4.969 -0.2658 -1.0369 -1.1609
11121WAT     H233766   2.607   0.142   5.089  0.8634 -0.0344 -0.3210
11122WAT      O33767   7.592   3.094   2.262  0.1992  0.2377  0.6376
11122WAT     H133768   7.632   3.007   2.261  0.4262  0.3413  0.1055
11122WAT     H233769   7.531   3.092   2.335 -0.9309 -0.8889 -0.2932
11123WAT      O33770   7.204   0.114   0.317  0.0474  0.2454  0.3665
11123WAT     H133771   7.160   0.107   0.401 -0.2843  0.2795  0.1999
11123WAT     H233772   7.147   0.171   0.265  0.9530  1.3933  0.5790
11124WAT      O33773   4.584   1.243   1.908 -0.3586 -0.2169  0.1563
11124WAT     H133774   4.527   1.319   1.905 -2.0019 -1.4096 -0.0823
11124WAT     H233775   4.589   1.220   2.001  1.4265  1.0602  0.4280
11125WAT      O33776   1.304   5.430   5.744  0.0884  0.1403  0.1132
11125WAT     H133777   1.358   5.487   5.798 -0.3996  1.4332 -0.7216
11125WAT     H233778   1.327   5.453   5.654 -0.8821 -0.2318 -0.2424
11126WAT      O33779   7.270   7.152   0.981  0.1928  0.0463  0.2966
11126WAT     H133780   7.326   7.204   1.038 -2.1960  0.5092  2.3869
11126WAT     H233781   7.243   7.078   1.036 -1.8197  0.2597 -0.3627
11127WAT      O33782   2.863   0.801   4.014  0.1669 -0.3439 -0.5243
11127WAT     H133783   2.853   0.822   4.107  2.8154 -1.4430  0.1100
11127WAT     H233784   2.901   0.879   3.975  0.6022 -0.4391 -0.3009
11128WAT      O33785   4.520   4.187   3.900 -0.5469 -0.3767  0.3588
11128WAT     H133786   4.537   4.241   3.978 -0.2047 -0.6527  0.4766
11128WAT     H233787   4.427   4.167   3.905 -0.5989 -0.1028  0.5138
11129WAT      O33788   0.573   4.796   3.940  0.0227 -0.4841  0.1891
11129WAT     H133789   0.520   4.756   4.009  0.4846 -0.1229  0.7645
11129WAT     H233790   0.611   4.722   3.893 -1.1096 -0.7580 -0.3524
11130WAT      O33791   7.015   0.069   3.538  0.0410  0.1131  0.5758
11130WAT     H133792   6.969   0.072   3.622 -1.3489 -3.0597  0.0797
11130WAT     H233793   7.096   0.022   3.556  0.2436  0.3713  0.3419
11131WAT      O33794   7.423   0.367   0.197 -0.3346  0.7264 -0.3523
11131WAT     H133795   7.358   0.299   0.214  0.9886 -0.3999  0.3948
11131WAT     H233796   7.502   0.320   0.172  0.0088  2.0920 -2.0421
11132WAT      O33797   4.307   3.150   3.191  0.2973  1.0507  0.3311
11132WAT     H133798   4.235   3.142   3.254 -1.0439  1.0635 -1.1348
11132WAT     H233799   4.324   3.245   3.186  0.3862  1.0527  0.6307
11133WAT      O33800   7.129   0.569   4.551  0.2374 -0.3690  0.0002
11133WAT     H133801   7.059   0.633   4.539  0.3214 -0.1373  0.6836
11133WAT     H233802   7.096   0.489   4.510  0.6098  0.4132 -1.8962
11134WAT      O33803   2.971   0.378   3.865 -0.0242  0.2503  0.2133
11134WAT     H133804   2.942   0.469   3.867  0.6465  0.4869 -0.3654
11134WAT     H233805   2.901   0.330   3.907 -0.6623  0.9640 -0.0050
11135WAT      O33806   3.315   6.949   3.482 -0.1898 -0.6910 -0.1959
11135WAT     H133807   3.254   7.011   3.441 -0.6946 -1.6010 -0.8679
11135WAT     H233808   3.259   6.878   3.513  0.1983 -0.0571  2.0871
11136WAT      O33809   3.839   3.539   2.396 -0.5860  0.6391  0.0068
11136WAT     H133810   3.798   3.622   2.423 -0.3445  0.5079  0.8008
11136WAT     H233811   3.766   3.483   2.370 -0.8841  0.5935  0.8975
11137WAT      O33812   5.987   6.536   4.973 -0.2991  0.5653  0.3282
11137WAT     H133813   6.066   6.577   5.008  0.1317 -0.1165  0.1798
11137WAT     H233814   5.944   6.499   5.050 -0.4393  0.8851  0.4024
11138WAT      O33815   2.575   6.543   4.581  0.6431 -0.1578  0.6098
11138WAT     H133816   2.507   6.476   4.569  1.1765 -0.5348 -0.4337
11138WAT     H233817   2.643   6.499   4.633  0.4407 -0.0158  1.0040
11139WAT      O33818   2.378   0.178   4.779 -0.3600  0.3202 -0.0828
11139WAT     H133819   2.448   0.116   4.799 -0.0067  0.4721 -0.7975
11139WAT     H233820   2.420   0.263   4.778 -0.9396  0.6410  1.3546
11140WAT      O33821   5.983   5.678   3.953  0.1048  0.3083 -0.1032
11140WAT     H133822   5.900   5.724   3.967  0.0235  0.0505  0.2889
11140WAT     H233823   5.979   5.650   3.861 -0.4861 -0.1685  0.0582
11141WAT      O33824   2.924   1.659   3.527  0.0761  0.3843  0.1221
11141WAT     H133825   2.945   1.627   3.615 -2.1194 -0.4211  0.4164
11141WAT     H233826   2.923   1.754   3.535  2.3566  0.4630  0.3027
11142WAT      O33827   0.152   4.988   2.671  0.1234 -0.6663 -0.4217
11142WAT     H133828   0.136   4.895   2.687  0.9118 -0.9935 -1.3986
11142WAT     H233829   0.247   4.994   2.659 -0.1770 -0.2514 -3.2635
11143WAT      O33830   2.377   6.016   1.676  0.4322 -0.1908 -0.2589
11143WAT     H133831   2.291   6.023   1.635  0.8674 -0.7355 -1.3071
11143WAT     H233832   2.367   6.060   1.761 -1.2017 -1.3212  0.1753
11144WAT      O33833   1.272   2.546   2.320 -0.8864  0.3007 -0.1705
11144WAT     H133834   1.219   2.620   2.290 -0.8947  0.4856  0.2852
11144WAT     H233835   1.218   2.505   2.388 -0.1063  0.9840  0.8912
11145WAT      O33836   6.423   3.766   2.954  0.1182  0.6243 -0.8702
11145WAT     H133837   6.504   3.817   2.953  0.5310  0.1363  1.3734
11145WAT     H233838   6.354   3.831   2.969  0.2760  0.8823 -1.2657
11146WAT      O33839   4.638   0.199   1.063 -0.2898 -0.2230 -0.5343
11146WAT     H133840   4.716   0.221   1.011  0.1383 -1.5301 -0.4644
11146WAT     H233841   4.623   0.106   1.047 -0.8965 -0.3632  0.7156
11147WAT      O33842   6.955   2.664   1.349  0.1487 -0.2616 -0.4016
11147WAT     H133843   7.005   2.591   1.387  2.5297  1.6417  0.3882
11147WAT     H233844   6.962   2.734   1.413 -1.4147  0.9476 -1.4720
11148WAT      O33845   1.514   0.793   5.067  0.0405  0.0260  0.3134
11148WAT     H133846   1.534   0.802   4.974 -0.2324  1.3381  0.3700
11148WAT     H233847   1.588   0.745   5.103  0.7839  0.6636 -0.3392
11149WAT      O33848   7.391   6.062   0.946  0.3296  0.1054 -0.2384
11149WAT     H133849   7.339   5.992   0.905 -1.3891  1.0707  0.1962
11149WAT     H233850   7.468   6.070   0.890  0.9792 -2.6285  0.1224
11150WAT      O33851   0.985   6.540   3.807 -0.3761 -0.0329 -0.5177
11150WAT     H133852   1.036   6.610   3.846  0.6360  0.0028 -1.8388
11150WAT     H233853   0.982   6.472   3.874  0.9600  0.1887 -0.2167
11151WAT      O33854   5.674   2.433   5.823 -0.4902  0.1273  0.4542
11151WAT     H133855   5.742   2.499   5.839 -1.6056  1.8003 -1.2418
11151WAT     H233856   5.618   2.437   5.901  0.3047  0.0388  1.0474
11152WAT      O33857   4.673   6.307   0.641  0.1264 -0.4354  0.2122
11152WAT     H133858   4.684   6.229   0.695  1.4710 -1.3259 -1.2795
11152WAT     H233859   4.639   6.373   0.702  1.8325 -1.2909  2.2425
11153WAT      O33860   5.883   6.855   0.521  0.3640  0.0284 -0.3464
11153WAT     H133861   5.854   6.767   0.497  0.9841 -0.3014  0.0817
11153WAT     H233862   5.967   6.841   0.565 -0.7713  0.5800  2.1610
11154WAT      O33863   2.897   3.591   6.123  0.6515 -0.1738  0.4013
11154WAT     H133864   2.987   3.581   6.092  0.6614 -0.0117  0.3809
11154WAT     H233865   2.897   3.550   6.210  0.9820  0.7183  0.8305
11155WAT      O33866   6.916   5.673   5.035 -0.1326  0.5278 -0.7331
11155WAT     H133867   6.875   5.587   5.033  2.6077 -0.8994 -0.3222
11155WAT     H233868   6.871   5.723   4.967 -2.9199 -0.6256  0.1373
11156WAT      O33869   2.799   6.921   4.754 -0.5318 -0.0067 -0.2707
11156WAT     H133870   2.866   6.929   4.822  1.4381  0.7986 -2.1795
11156WAT     H233871   2.717   6.945   4.798  1.0992  3.7564  1.1361
11157WAT      O33872   3.612   5.478   2.146 -0.4786 -0.2945  0.6064
11157WAT     H133873   3.554   5.414   2.188 -0.2959 -1.1163 -0.3674
11157WAT     H233874   3.700   5.443   2.159 -0.4247 -0.6152 -0.5241
11158WAT      O33875   4.854   1.057   0.142 -0.3805  0.1358 -0.3886
11158WAT     H133876   4.793   1.017   0.203 -0.9116 -0.6295 -1.3893
11158WAT     H233877   4.937   1.013   0.158 -0.5658 -0.2048 -0.3524
11159WAT      O33878   3.910   6.005   0.997  0.0291 -0.5678  0.2519
11159WAT     H133879   3.902   6.093   1.034  1.7162 -0.3495  0.1770
11159WAT     H233880   3.991   5.970   1.035 -0.7134 -2.1863  0.4378
11160WAT      O33881   6.826   0.733   4.769  0.5624  0.0373 -0.4684
11160WAT     H133882   6.763   0.803   4.785  0.8826  0.1936  0.1196
11160WAT     H233883   6.908   0.778   4.752  0.4308 -0.1488 -1.7264
11161WAT      O33884   3.920   6.937   4.926 -0.1360 -0.4967 -0.0649
11161WAT     H133885   3.928   6.905   5.016 -0.1158  0.3614  0.2403
11161WAT     H233886   4.002   6.982   4.908  0.5970 -2.1409 -1.1366
11162WAT      O33887   3.769   2.036   0.545 -0.3811  0.0499  0.1534
11162WAT     H133888   3.810   2.032   0.632  2.4003 -1.3338 -1.0837
11162WAT     H233889   3.756   2.130   0.529 -0.9911  0.3289  2.0384
11163WAT      O33890   6.548   6.178   0.253  0.0874  0.5886  0.0546
11163WAT     H133891   6.551   6.211   0.343 -2.4241  0.5641  0.2028
11163WAT     H233892   6.579   6.088   0.260  0.5842  0.7962  0.7524
11164WAT      O33893   6.106   2.086   1.384  0.7445 -0.2418 -0.0459
11164WAT     H133894   6.085   2.000   1.419 -2.3725 -1.4819 -4.1812
11164WAT     H233895   6.187   2.073   1.335  0.2376 -0.9076 -0.7323
11165WAT      O33896   6.206   7.035   2.578 -0.5699 -0.6874  0.7580
11165WAT     H133897   6.132   6.975   2.590 -1.1044 -0.0378  0.7975
11165WAT     H233898   6.200   7.095   2.652 -1.1241  0.5015 -0.2113
11166WAT      O33899   7.146   4.031   4.772  0.1365  0.0901  0.5353
11166WAT     H133900   7.126   4.125   4.769  1.6383  0.4317  0.2381
11166WAT     H233901   7.117   3.998   4.688  2.4584  0.9638 -0.7031
11167WAT      O33902   2.097   4.277   3.848 -0.4682 -0.4158 -0.4057
11167WAT     H133903   2.098   4.198   3.795  1.9669 -0.8520  0.1606
11167WAT     H233904   2.112   4.349   3.787  1.0369 -0.7914 -0.5103
11168WAT      O33905   5.686   6.595   2.870  0.2450  0.0031  0.4946
11168WAT     H133906   5.661   6.687   2.864  0.7606  0.1684  0.8149
11168WAT     H233907   5.742   6.590   2.947  2.5157 -0.0490 -1.0793
11169WAT      O33908   6.004   3.563   2.915 -0.2430 -0.5277 -0.3856
11169WAT     H133909   6.062   3.487   2.923  0.5569  0.0309 -0.6902
11169WAT     H233910   6.038   3.610   2.839 -0.2159  0.5697  0.2893
11170WAT      O33911   1.450   5.510   2.478 -0.1814 -0.4440 -0.1042
11170WAT     H133912   1.458   5.594   2.522 -0.0870 -0.4350 -0.1389
11170WAT     H233913   1.540   5.479   2.466 -0.2275 -0.6875  0.1724
11171WAT      O33914   5.279   5.351   2.539 -0.7756 -0.3256  0.2511
11171WAT     H133915   5.309   5.380   2.453  0.3736  0.4137  0.8789
11171WAT     H233916   5.339   5.392   2.601  0.2506 -3.1306  1.2862
11172WAT      O33917   6.144   4.697   2.818  0.2569  0.1130 -0.5268
11172WAT     H133918   6.091   4.745   2.755  2.6863  2.5187 -0.9462
11172WAT     H233919   6.222   4.671   2.770  1.0728 -0.1394  0.8607
11173WAT      O33920   4.366   1.388   5.294  0.1644  0.2196 -0.2091
11173WAT     H133921   4.347   1.378   5.200  0.5981  0.7160 -0.3513
11173WAT     H233922   4.411   1.472   5.301  1.9629 -0.7137  0.1503
11174WAT      O33923   1.500   4.689   5.915  0.0541  0.2347 -0.6272
11174WAT     H133924   1.595   4.679   5.916  0.2234  1.7221  0.1065
11174WAT     H233925   1.472   4.661   6.002 -0.3098 -1.0118 -1.1098
11175WAT      O33926   3.664   4.909   3.520  0.0189  0.3779 -0.6178
11175WAT     H133927   3.610   4.845   3.565  1.7074 -0.8107 -0.1521
11175WAT     H233928   3.630   4.994   3.549 -0.4737 -0.3328  1.0248
11176WAT      O33929   7.252   3.686   0.155 -0.2127 -0.1785  0.0181
11176WAT     H133930   7.181   3.651   0.209 -0.2125 -1.6921 -0.8924
11176WAT     H233931   7.331   3.642   0.188 -0.6357 -4.3279 -3.4918
11177WAT      O33932   4.994   2.888   4.352 -0.4437 -0.4796  0.3189
11177WAT     H133933   4.935   2.923   4.285  0.2270 -0.4931 -0.2926
11177WAT     H233934   4.977   2.941   4.430  1.1632  1.8420 -0.7970
11178WAT      O33935   5.427   3.604   4.180 -0.4675  0.3468 -0.4639
11178WAT     H133936   5.374   3.681   4.197 -3.4306 -1.7439  0.5525
11178WAT     H233937   5.370   3.546   4.129  1.6333 -1.1900 -1.2020
11179WAT      O33938   1.784   5.887   1.823 -0.4156 -0.9325  0.4437
11179WAT     H133939   1.805   5.867   1.732 -0.3549  0.1877  0.1889
11179WAT     H233940   1.696   5.926   1.819  0.4958  1.2588  0.5358
11180WAT      O33941   5.791   0.279   1.172  0.1670 -0.5665 -0.1443
11180WAT     H133942   5.699   0.306   1.177  0.3411 -0.2165  2.6512
11180WAT     H233943   5.835   0.351   1.127 -0.9310 -0.8984 -1.8348
11181WAT      O33944   1.209   0.237   5.576  0.8645  0.4581 -0.2994
11181WAT     H133945   1.175   0.323   5.602  1.2437  0.5337 -0.0455
11181WAT     H233946   1.244   0.250   5.488 -0.2836  0.2415 -0.8071
11182WAT      O33947   7.279   4.284   4.675  0.0792  0.3747 -0.6259
11182WAT     H133948   7.320   4.364   4.643  0.8524 -0.2015 -1.0984
11182WAT     H233949   7.274   4.296   4.770  0.2971  0.9318 -0.6813
11183WAT      O33950   7.009   4.907   3.384 -0.1118 -0.2699  0.1802
11183WAT     H133951   6.937   4.845   3.397  0.4865 -0.8940  0.5869
11183WAT     H233952   7.004   4.931   3.292 -0.2923 -1.0064 -0.0046
11184WAT      O33953   4.898   4.496   4.254 -0.3119  0.0847 -0.0329
11184WAT     H133954   4.926   4.472   4.342  1.5192 -0.0390 -0.5912
11184WAT     H233955   4.970   4.551   4.220 -0.3696 -0.8708 -1.8514
11185WAT      O33956   2.133   3.182   2.433 -0.0539  0.6923 -0.0286
11185WAT     H133957   2.042   3.154   2.433 -0.4553  1.9347  1.1594
11185WAT     H233958   2.170   3.145   2.514  0.4698  0.3306 -0.4197
11186WAT      O33959   7.445   5.950   4.586 -0.3265  0.1993  0.0525
11186WAT     H133960   7.502   6.003   4.642 -0.8790  0.3464  0.4852
11186WAT     H233961   7.375   6.010   4.559 -2.1975 -0.7923  2.3383
11187WAT      O33962   6.432   2.469   3.718 -0.2830  0.0568 -0.2562
11187WAT     H133963   6.448   2.537   3.653 -0.9574  1.3062  0.8350
11187WAT     H233964   6.358   2.502   3.769  0.4343 -0.7174  1.3644
11188WAT      O33965   4.250   0.712   6.042 -0.3860  0.3212  0.0328
11188WAT     H133966   4.188   0.784   6.030  0.1056  0.4861 -1.8966
11188WAT     H233967   4.253   0.698   6.136 -0.2412  3.0440  0.5044
11189WAT      O33968   5.226   6.948   3.270  0.1086  0.4669  0.1641
11189WAT     H133969   5.280   7.025   3.289  2.0101 -0.0846 -2.4726
11189WAT     H233970   5.283   6.892   3.217 -1.8700 -1.8899  0.3904
11190WAT      O33971   2.169   2.420   5.287  0.4553 -0.0421  0.2066
11190WAT     H133972   2.253   2.401   5.328 -0.4297 -1.0152  1.6698
11190WAT     H233973   2.125   2.335   5.283 -1.5080  0.7992  2.0038
11191WAT      O33974   4.542   0.811   0.462 -0.0632  0.5633  0.3185
11191WAT     H133975   4.625   0.832   0.418 -0.1950  2.2827  0.8290
11191WAT     H233976   4.525   0.886   0.519 -2.1011  0.3375  0.0711
11192WAT      O33977   7.511   2.618   4.619 -0.4756  0.5709  0.5360
11192WAT     H133978   7.522   2.658   4.705  1.3138  0.2797  0.4817
11192WAT     H233979   7.578   2.661   4.564  0.2625 -1.1552  0.0211
11193WAT      O33980   2.209   2.742   0.649 -0.0880 -0.2800  0.4283
11193WAT     H133981   2.182   2.823   0.606  1.1522 -1.4064 -2.6800
11193WAT     H233982   2.286   2.766   0.700 -1.5781  1.0655  2.2282
11194WAT      O33983   1.949   5.797   0.615  0.2451 -0.5635  0.2120
11194WAT     H133984   1.999   5.863   0.664 -1.0826 -1.0911  2.3911
11194WAT     H233985   2.012   5.728   0.595  1.3588  0.7505 -0.9997
11195WAT      O33986   4.774   2.279   1.355  0.2068  0.3060 -0.1815
11195WAT     H133987   4.700   2.234   1.316  0.7565 -0.5119 -0.3179
11195WAT     H233988   4.764   2.265   1.449  0.4523 -0.2433 -0.2320
11196WAT      O33989   2.478   1.527   2.946 -0.0169  0.0176  0.1172
11196WAT     H133990   2.551   1.466   2.960  1.7314  1.9698 -0.1218
11196WAT     H233991   2.433   1.530   3.031  0.5504 -0.7134  0.4610
11197WAT      O33992   5.102   7.135   2.239  0.0398  0.3414 -0.1406
11197WAT     H133993   5.065   7.089   2.164 -0.6150  1.7142 -0.6865
11197WAT     H233994   5.117   7.066   2.304 -1.4130 -0.5758 -0.7199
11198WAT      O33995   5.219   1.314   1.202  0.1329  0.0864 -0.1535
11198WAT     H133996   5.308   1.281   1.212  0.5326  0.7897 -1.2156
11198WAT     H233997   5.164   1.243   1.235  1.0129 -1.0704 -1.0501
11199WAT      O33998   0.971   6.135   6.017  0.4917 -0.6959 -0.6911
11199WAT     H133999   1.030   6.095   6.080  0.3951  0.1023 -0.0941
11199WAT     H234000   0.917   6.062   5.986  1.9232 -1.4848 -1.4311
11200WAT      O34001   4.509   5.412   1.745 -0.0605  0.2533 -0.8156
11200WAT     H134002   4.577   5.458   1.794 -0.2188  0.2275 -0.5703
11200WAT     H234003   4.427   5.455   1.771 -0.3041 -0.6962  0.0498
11201WAT      O34004   0.822   4.609   5.082 -0.5019 -0.0993  0.0924
11201WAT     H134005   0.779   4.532   5.119 -0.9139  0.7020  1.3818
11201WAT     H234006   0.907   4.578   5.052 -1.4251 -1.4382 -1.2514
11202WAT      O34007   2.763   2.828   5.451 -0.1947 -0.5134  0.1831
11202WAT     H134008   2.790   2.870   5.369  0.0100 -0.8271  0.0901
11202WAT     H234009   2.806   2.743   5.450 -0.4726 -0.6589  0.4541
11203WAT      O34010   6.896   3.182   3.838 -0.1088 -0.1267  0.1909
11203WAT     H134011   6.912   3.135   3.920  1.5606  1.4513  0.8490
11203WAT     H234012   6.823   3.241   3.858  0.5692  0.5565  0.7043
11204WAT      O34013   3.064   2.208   5.511 -0.3399 -0.0536  0.7911
11204WAT     H134014   3.049   2.210   5.606  1.4947 -1.1979  1.1703
11204WAT     H234015   3.030   2.123   5.483  0.5110 -0.3913  0.7347
11205WAT      O34016   3.609   2.675   1.665  0.4281  0.2162  0.4370
11205WAT     H134017   3.534   2.709   1.618  0.4101 -1.1643 -0.6013
11205WAT     H234018   3.596   2.703   1.755 -1.6953 -0.5550  0.4220
11206WAT      O34019   5.153   6.988   2.907 -0.4279 -0.1687  0.1853
11206WAT     H134020   5.060   6.986   2.928 -1.1134 -0.3051 -2.4546
11206WAT     H234021   5.181   6.896   2.914 -0.0779  0.0704  2.4111
11207WAT      O34022   5.166   5.541   1.670  0.1473  0.0013 -0.5460
11207WAT     H134023   5.072   5.527   1.661  0.2136 -0.9792  0.1154
11207WAT     H234024   5.176   5.583   1.756  0.4452 -1.7881  0.3480
11208WAT      O34025   5.398   6.787   0.355  0.5180 -0.2023 -0.2565
11208WAT     H134026   5.450   6.766   0.432  1.0147  0.7138 -0.3278
11208WAT     H234027   5.370   6.877   0.369 -2.0627 -0.9960  0.3410
11209WAT      O34028   5.884   4.946   2.352  0.3004 -0.9416 -0.0453
11209WAT     H134029   5.907   5.035   2.378 -0.2156 -0.6888 -0.4667
11209WAT     H234030   5.794   4.935   2.380  0.7152 -1.7363  1.0572
11210WAT      O34031   1.511   6.999   1.128  0.4938 -0.1052 -0.6021
11210WAT     H134032   1.444   6.934   1.151 -0.1490  0.0247 -1.9926
11210WAT     H234033   1.557   7.016   1.210 -0.8722 -0.5532  0.2947
11211WAT      O34034   1.241   4.687   3.777  0.1515 -0.2628 -0.2266
11211WAT     H134035   1.316   4.735   3.813  0.9757 -0.3097 -1.8123
11211WAT     H234036   1.224   4.618   3.841  0.9640  0.2041  0.5221
11212WAT      O34037   1.213   5.277   0.794  0.0010 -0.0433  0.4567
11212WAT     H134038   1.137   5.315   0.838  0.2225  1.5368 -0.4574
11212WAT     H234039   1.278   5.266   0.864  0.1990  2.0186  0.6577
11213WAT      O34040   7.050   5.970   3.491 -0.3743  0.6493 -0.4201
11213WAT     H134041   7.137   5.936   3.512 -0.7720 -0.3728 -0.3263
11213WAT     H234042   7.015   6.000   3.575  0.4832  2.5971 -0.7040
11214WAT      O34043   0.013   3.407   2.607  0.3370  0.3883 -0.0790
11214WAT     H134044   0.018   3.374   2.517  0.5597  2.6790 -0.9823
11214WAT     H234045   0.072   3.483   2.608 -0.2691  0.8909  1.7904
11215WAT      O34046   6.741   2.657   3.227  0.8533  0.0410 -0.0619
11215WAT     H134047   6.713   2.729   3.171  0.0003 -0.5272 -0.3786
11215WAT     H234048   6.835   2.671   3.238  0.9311  0.5031 -1.1450
11216WAT      O34049   6.850   1.432   3.185  0.1060  0.6684  0.1863
11216WAT     H134050   6.829   1.471   3.270  2.1531 -1.4269  1.7825
11216WAT     H234051   6.810   1.346   3.188  1.6005 -0.0763 -0.2268
11217WAT      O34052   4.499   3.573   4.426 -0.0228  0.2482 -0.0091
11217WAT     H134053   4.448   3.652   4.410  1.0756  1.0757  0.4025
11217WAT     H234054   4.500   3.563   4.521 -0.3347 -0.3866 -0.0679
11218WAT      O34055   6.253   2.485   0.080 -0.1416  0.0783  0.1865
11218WAT     H134056   6.227   2.450   0.166  1.0611  0.3343  0.6842
11218WAT     H234057   6.344   2.513   0.093 -0.4763  1.6930 -0.7015
11219WAT      O34058   6.975   0.632   5.749 -0.6063 -0.1992  0.1137
11219WAT     H134059   6.923   0.621   5.670  0.8367  0.8317 -1.0269
11219WAT     H234060   6.915   0.611   5.821 -1.4854 -2.9117 -1.2669
11220WAT      O34061   6.827   1.737   1.203 -0.2177 -0.4783  0.1419
11220WAT     H134062   6.833   1.689   1.120 -1.3708 -0.5013  0.0553
11220WAT     H234063   6.817   1.828   1.178 -0.1416 -0.4353  0.2658
11221WAT      O34064   0.065   3.712   5.680  0.7713  0.0358  0.3017
11221WAT     H134065   0.054   3.617   5.688  0.5364  0.0315 -0.0559
11221WAT     H234066   0.135   3.723   5.617  0.8952  0.0995  0.4501
11222WAT      O34067   5.153   5.600   3.663  0.3378  0.1138 -0.2745
11222WAT     H134068   5.131   5.526   3.720 -0.2831 -0.6708 -1.4761
11222WAT     H234069   5.071   5.620   3.617  0.8759  0.5316 -1.0812
11223WAT      O34070   5.401   2.439   2.055 -0.3248 -0.4139 -0.0080
11223WAT     H134071   5.396   2.378   2.128 -1.1452  0.1074  0.3950
11223WAT     H234072   5.495   2.450   2.039 -0.1715 -1.7919 -0.1217
11224WAT      O34073   7.356   2.653   6.045  0.0279 -0.2302 -0.5818
11224WAT     H134074   7.438   2.608   6.065  0.1667 -0.0654 -0.7789
11224WAT     H234075   7.344   2.713   6.118  0.5971  0.4586 -1.0477
11225WAT      O34076   6.226   7.102   2.295  0.3045  0.3017 -0.3044
11225WAT     H134077   6.132   7.088   2.282 -0.4088  4.2572 -0.6267
11225WAT     H234078   6.241   7.085   2.388 -0.7678 -0.1155 -0.1983
11226WAT      O34079   6.715   4.619   4.155  0.3446  0.3010 -0.1039
11226WAT     H134080   6.725   4.550   4.221  0.2945  0.3653 -0.0293
11226WAT     H234081   6.798   4.668   4.159  0.9684 -0.6168 -1.1496
11227WAT      O34082   5.268   0.432   2.441 -0.7624 -0.1983 -0.7047
11227WAT     H134083   5.222   0.367   2.494 -0.6232 -0.5009 -0.9530
11227WAT     H234084   5.295   0.385   2.362 -1.0998  0.2811 -1.1192
11228WAT      O34085   1.258   4.893   0.936 -0.1770 -0.3728 -0.0389
11228WAT     H134086   1.303   4.919   0.855 -1.2169  0.0809 -0.4861
11228WAT     H234087   1.328   4.888   1.002  0.3329  1.7480 -0.3573
11229WAT      O34088   5.543   2.122   6.102  0.0035 -0.2914  0.3235
11229WAT     H134089   5.627   2.165   6.087  0.4164 -1.1929  0.0075
11229WAT     H234090   5.504   2.171   6.175 -0.1714  1.4783 -0.8879
11230WAT      O34091   4.115   5.441   4.214 -0.7148  0.2466 -0.3584
11230WAT     H134092   4.048   5.411   4.276  1.5394  0.1336  2.2197
11230WAT     H234093   4.112   5.536   4.220 -1.0853  0.2661 -0.7883
11231WAT      O34094   1.986   3.373   3.443  0.1448 -0.3742 -0.5372
11231WAT     H134095   2.044   3.306   3.406  2.7766  2.2677 -1.6349
11231WAT     H234096   2.000   3.368   3.538  0.7339 -1.0155 -0.6553
11232WAT      O34097   4.826   2.213   4.729 -0.8621 -0.0466 -0.0455
11232WAT     H134098   4.841   2.270   4.654 -2.4085 -0.2772 -0.5565
11232WAT     H234099   4.743   2.243   4.766 -2.2317 -2.5346 -0.9027
11233WAT      O34100   3.363   5.798   3.458  0.4610 -0.0905  0.0752
11233WAT     H134101   3.381   5.887   3.486 -0.4397 -0.4836  2.0772
11233WAT     H234102   3.421   5.743   3.512 -0.0677 -0.7872 -0.0444
11234WAT      O34103   5.759   6.836   4.472 -0.5167 -0.0238  0.5558
11234WAT     H134104   5.801   6.750   4.473 -1.5272 -0.6337 -1.6636
11234WAT     H234105   5.675   6.822   4.514 -1.0366 -0.3830 -0.5538
11235WAT      O34106   0.701   3.663   1.481  0.0762  0.0423 -0.1487
11235WAT     H134107   0.662   3.611   1.552 -1.9611 -0.8484 -1.7828
11235WAT     H234108   0.628   3.717   1.449  1.4602  1.8904 -0.3115
11236WAT      O34109   1.244   5.510   1.346  0.3076  0.8206 -0.1548
11236WAT     H134110   1.200   5.426   1.335  0.7921  0.5905 -0.3516
11236WAT     H234111   1.270   5.512   1.439 -0.1599  0.9824 -0.0237
11237WAT      O34112   6.076   3.015   4.440 -0.1087 -0.2462  0.0092
11237WAT     H134113   6.097   3.108   4.443  1.4226 -0.5751  2.1671
11237WAT     H234114   5.986   3.010   4.470  0.1529  0.5080  1.0034
11238WAT      O34115   6.191   5.734   5.216  0.5080 -0.4098  0.3171
11238WAT     H134116   6.171   5.825   5.238  1.0311 -0.0418 -0.7209
11238WAT     H234117   6.126   5.711   5.149  1.1020 -0.4374 -0.2489
11239WAT      O34118   3.905   5.386   1.039 -0.1624  0.4829  0.0690
11239WAT     H134119   3.945   5.429   1.114  0.4881 -0.1950  0.1211
11239WAT     H234120   3.814   5.371   1.065 -0.1496  0.9769  0.4034
11240WAT      O34121   7.037   4.671   3.792 -1.2741  0.0526  0.2882
11240WAT     H134122   7.123   4.712   3.804 -1.5513  0.7856 -0.1608
11240WAT     H234123   7.056   4.581   3.767 -0.5908  0.6847 -1.6116
11241WAT      O34124   5.303   1.045   1.509  0.3519 -0.0265  0.2775
11241WAT     H134125   5.280   1.001   1.591 -0.6775  0.4060  0.2463
11241WAT     H234126   5.219   1.055   1.464  0.8398  0.1944 -0.6036
11242WAT      O34127   0.786   7.102   5.115 -0.5274  0.1722 -0.1476
11242WAT     H134128   0.816   7.173   5.173  0.0140 -0.9979  1.0586
11242WAT     H234129   0.815   7.022   5.158 -1.7280 -0.8343 -1.1269
11243WAT      O34130   7.201   6.409   1.211 -0.1868  0.2368  0.4201
11243WAT     H134131   7.162   6.392   1.125 -1.4353 -1.2406  1.2336
11243WAT     H234132   7.201   6.324   1.255  0.9352  0.8617  1.6982
11244WAT      O34133   5.837   0.199   3.412  0.1136 -0.1155  0.5417
11244WAT     H134134   5.853   0.105   3.418  0.2972 -0.1699 -0.5802
11244WAT     H234135   5.909   0.233   3.359  0.1710  0.6952  1.1191
11245WAT      O34136   0.760   2.705   3.500  0.5651 -0.0299 -0.2063
11245WAT     H134137   0.848   2.673   3.476  0.4419 -0.5924  0.0892
11245WAT     H234138   0.730   2.750   3.421  1.9754  2.0958  0.3530
11246WAT      O34139   5.255   6.365   5.681 -0.2660 -0.1162  0.8883
11246WAT     H134140   5.176   6.391   5.634 -1.1364 -1.4415  1.5498
11246WAT     H234141   5.236   6.384   5.773 -0.4582 -1.8660  1.2384
11247WAT      O34142   2.732   3.879   0.007  0.0356  0.3827  0.3182
11247WAT     H134143   2.642   3.855   0.032  0.9597 -1.2240  2.4447
11247WAT     H234144   2.751   3.957   0.060 -0.7363  2.0649 -1.7228
11248WAT      O34145   4.019   3.958   1.281 -0.1622 -0.2786  0.1409
11248WAT     H134146   3.961   3.899   1.232  0.7597 -0.3038 -0.9751
11248WAT     H234147   3.970   3.981   1.360 -1.4591 -0.7255 -0.5129
11249WAT      O34148   6.447   2.114   4.778  0.6825 -0.0904 -0.2014
11249WAT     H134149   6.495   2.035   4.752 -1.3229 -1.4029 -0.1070
11249WAT     H234150   6.390   2.085   4.849  0.3620  1.6082  0.2691
11250WAT      O34151   4.837   5.364   4.503 -0.2353 -0.1059  0.2227
11250WAT     H134152   4.898   5.303   4.543  1.0833  1.1487  0.1916
11250WAT     H234153   4.884   5.448   4.500 -1.0385  0.3403 -2.0442
11251WAT      O34154   0.643   0.065   0.781 -0.3435 -0.2562  0.1469
11251WAT     H134155   0.603   0.031   0.861 -1.3129  1.9205  0.6736
11251WAT     H234156   0.701   0.135   0.812 -0.5637  0.4603 -1.0170
11252WAT      O34157   5.160   3.561   4.667 -0.3075 -0.5854  0.3219
11252WAT     H134158   5.219   3.635   4.680  2.6147 -2.3625 -1.6341
11252WAT     H234159   5.110   3.584   4.588 -0.6907  0.0381  0.7433
11253WAT      O34160   3.423   5.402   0.517 -0.0131 -0.3628 -0.1775
11253WAT     H134161   3.393   5.420   0.607  0.6715  2.2811 -0.4169
11253WAT     H234162   3.351   5.353   0.478 -2.0896  1.7939  0.6807
11254WAT      O34163   2.849   5.097   6.062  0.1002 -0.4958 -0.3199
11254WAT     H134164   2.909   5.040   6.110  1.1476  0.1459 -0.8432
11254WAT     H234165   2.787   5.127   6.129  0.7564 -0.6436  0.3684
11255WAT      O34166   0.869   3.967   2.126  0.5565  0.3786 -0.7200
11255WAT     H134167   0.932   3.949   2.056  0.1015 -0.6951 -0.8770
11255WAT     H234168   0.894   3.906   2.196 -0.1731  0.0869 -0.7043
11256WAT      O34169   1.532   5.336   0.672 -0.0644  0.0430 -0.1130
11256WAT     H134170   1.541   5.403   0.739  1.8494 -0.0049 -0.2565
11256WAT     H234171   1.573   5.258   0.710 -0.0643 -0.3315 -0.8592
11257WAT      O34172   1.299   5.745   0.395  0.1663  0.3388 -0.2610
11257WAT     H134173   1.228   5.784   0.447  1.8286  1.8955  0.9783
11257WAT     H234174   1.377   5.756   0.449  1.1764 -2.7490 -0.8793
11258WAT      O34175   5.979   5.150   1.224  0.2201  0.8901 -0.4137
11258WAT     H134176   5.902   5.147   1.167  0.9436  2.0586 -1.5316
11258WAT     H234177   6.004   5.243   1.225  2.0011  0.4513 -0.6589
11259WAT      O34178   2.926   2.057   4.577 -0.5492 -0.0396 -0.1680
11259WAT     H134179   2.866   2.131   4.575 -0.1728  0.2813  0.3047
11259WAT     H234180   2.984   2.071   4.502  0.0622  0.6117  0.4099
11260WAT      O34181   4.153   2.843   2.234  0.0347  0.0178 -0.1678
11260WAT     H134182   4.233   2.811   2.275 -0.2702 -3.3630 -1.8672
11260WAT     H234183   4.095   2.863   2.307  1.3816 -0.4171  1.0578
11261WAT      O34184   2.699   0.214   1.552  0.0700 -0.2598  0.0164
11261WAT     H134185   2.673   0.297   1.593  0.4621 -0.0065 -0.2435
11261WAT     H234186   2.708   0.153   1.624  1.8908  0.4701  0.4521
11262WAT      O34187   1.078   3.039   2.300  0.2188 -0.0687 -0.0601
11262WAT     H134188   1.024   3.097   2.354 -0.2742 -1.2402  0.7387
11262WAT     H234189   1.071   3.075   2.211 -2.4939 -0.5879 -0.1307
11263WAT      O34190   5.032   4.740   5.451  0.0183  0.0339  0.3973
11263WAT     H134191   5.034   4.794   5.530 -1.5539 -0.0814  0.5582
11263WAT     H234192   5.111   4.763   5.404  1.0498  0.0348  2.0493
11264WAT      O34193   4.769   3.528   5.400  0.4549  0.5131 -0.1760
11264WAT     H134194   4.844   3.588   5.390  1.9201 -1.2146 -0.1586
11264WAT     H234195   4.795   3.472   5.474 -0.3466 -0.8559 -0.9109
11265WAT      O34196   0.845   1.043   1.464  0.1902  0.4109 -0.3533
11265WAT     H134197   0.911   0.983   1.497 -0.0957 -0.2616 -0.9838
11265WAT     H234198   0.809   1.085   1.543 -0.0733 -0.7246  0.1419
11266WAT      O34199   2.419   5.958   3.887 -0.4996 -0.3410 -0.0705
11266WAT     H134200   2.370   6.010   3.824 -0.6184 -0.8953 -0.4387
11266WAT     H234201   2.494   6.013   3.911 -0.7833  0.1172 -0.2260
11267WAT      O34202   7.615   3.200   0.810 -0.3038 -0.2531 -0.0908
11267WAT     H134203   7.545   3.144   0.776 -0.1228 -0.3362 -0.3251
11267WAT     H234204   7.676   3.209   0.738  0.5171 -1.1470  0.4691
11268WAT      O34205   5.446   3.686   2.490 -0.2123  0.0586 -0.2624
11268WAT     H134206   5.482   3.645   2.569 -0.2491 -1.2232 -0.8788
11268WAT     H234207   5.424   3.612   2.433  0.8812  0.9650 -1.9447
11269WAT      O34208   5.088   4.228   5.491  0.1973 -0.0184  0.2478
11269WAT     H134209   5.032   4.283   5.546 -0.8096  0.4463 -1.1830
11269WAT     H234210   5.027   4.169   5.446  0.7478  0.9104 -1.8249
11270WAT      O34211   4.946   2.435   4.547 -0.2639  0.0162 -0.3153
11270WAT     H134212   5.037   2.444   4.572 -0.3971 -0.7469  0.5228
11270WAT     H234213   4.910   2.524   4.549 -0.0474  0.0835  1.4131
11271WAT      O34214   4.362   3.874   1.965 -0.2724 -0.4399  0.4532
11271WAT     H134215   4.269   3.892   1.959 -0.7581 -1.9032  2.4914
11271WAT     H234216   4.395   3.937   2.029  0.3480  0.6180 -0.8607
11272WAT      O34217   4.751   3.891   3.194  0.3025 -1.0181  0.0789
11272WAT     H134218   4.828   3.834   3.206  0.2844 -0.9407  0.6037
11272WAT     H234219   4.678   3.839   3.228  0.4904 -0.1507  1.9153
11273WAT      O34220   0.668   1.519   1.086 -0.3887  0.0673 -0.1574
11273WAT     H134221   0.756   1.484   1.097 -1.0626 -1.1790  1.7359
11273WAT     H234222   0.661   1.587   1.154 -0.4013  1.2808 -1.3194
11274WAT      O34223   7.228   1.454   2.329  0.6450  0.3274  0.5456
11274WAT     H134224   7.200   1.426   2.416  0.6293  0.6704  0.6504
11274WAT     H234225   7.256   1.545   2.340 -0.2518  0.6886  0.0141
11275WAT      O34226   5.451   0.598   0.360 -0.5805 -0.7316 -0.1096
11275WAT     H134227   5.373   0.636   0.400  1.1244  1.1158  1.6570
11275WAT     H234228   5.486   0.668   0.304  0.3515 -1.1783 -0.1057
11276WAT      O34229   2.113   1.707   5.673 -0.2195  0.3534  0.0986
11276WAT     H134230   2.047   1.771   5.648  1.0249  1.5475 -0.2022
11276WAT     H234231   2.066   1.645   5.729 -1.9149  0.3506 -1.2553
11277WAT      O34232   2.925   5.634   2.701  0.2562  0.0923  0.6089
11277WAT     H134233   2.971   5.715   2.723 -1.1799  0.7791  1.1720
11277WAT     H234234   2.892   5.648   2.613  0.4602 -0.0959  0.5018
11278WAT      O34235   5.849   1.197   0.370  0.5507 -0.1090 -0.4200
11278WAT     H134236   5.889   1.133   0.429  1.4634 -0.3081 -1.2316
11278WAT     H234237   5.918   1.217   0.306  0.4578  2.0553  0.0841
11279WAT      O34238   7.337   2.918   1.890  0.5917 -0.0107 -0.0831
11279WAT     H134239   7.433   2.916   1.898  0.6955  1.6748 -0.3734
11279WAT     H234240   7.308   2.833   1.923  2.3083 -1.4903 -2.1432
11280WAT      O34241   4.936   6.276   1.729  0.1415 -0.0514 -0.2318
11280WAT     H134242   5.028   6.248   1.722 -0.0719 -0.4889 -1.3875
11280WAT     H234243   4.907   6.240   1.813  1.1758  0.5812  0.4296
11281WAT      O34244   5.148   0.838   2.174 -0.0938  0.3925 -0.2464
11281WAT     H134245   5.090   0.906   2.139  0.4169  1.2991  0.6095
11281WAT     H234246   5.218   0.831   2.110  0.1004  1.0297 -0.1100
11282WAT      O34247   0.991   0.799   1.503  0.0069 -0.0996  0.5688
11282WAT     H134248   1.019   0.716   1.464 -3.2075 -1.0798  0.0204
11282WAT     H234249   1.036   0.804   1.587  2.1357 -1.1436 -0.4541
11283WAT      O34250   7.340   5.839   6.222 -0.7024 -0.2597 -0.3433
11283WAT     H134251   7.286   5.761   6.209 -1.9821  0.7057 -1.0625
11283WAT     H234252   7.281   5.903   6.260  0.5293  0.1407  0.9970
11284WAT      O34253   2.496   0.990   6.009  0.2882 -0.4729  0.5181
11284WAT     H134254   2.546   0.918   6.047 -0.9536 -2.5444 -1.5024
11284WAT     H234255   2.416   0.995   6.061 -0.0674 -1.2665  0.0641
11285WAT      O34256   1.814   4.254   2.035  0.0302 -0.4789  0.4826
11285WAT     H134257   1.830   4.338   1.994  0.8988 -0.0427  1.6555
11285WAT     H234258   1.874   4.193   1.992 -0.6908 -0.5413 -0.4541
11286WAT      O34259   1.558   3.074   5.020  0.5822 -0.3534 -0.0968
11286WAT     H134260   1.622   3.028   5.074  0.0963  0.4526  1.2118
11286WAT     H234261   1.542   3.015   4.946  1.0591 -1.6255  0.7838
11287WAT      O34262   1.023   6.202   1.164  0.0102 -0.1103  0.1910
11287WAT     H134263   0.981   6.241   1.240  1.3165 -0.6095  1.1982
11287WAT     H234264   1.009   6.108   1.174  0.5098 -0.2060  0.0114
11288WAT      O34265   3.573   0.075   5.758  0.4122 -0.0737 -0.5144
11288WAT     H134266   3.565   0.166   5.784 -0.7867  0.2086 -1.7459
11288WAT     H234267   3.543   0.025   5.833  1.1830  0.5270  0.2084
11289WAT      O34268   2.339   0.116   5.339  0.6941  0.2053  0.0984
11289WAT     H134269   2.357   0.054   5.410  1.7083 -2.0371 -1.9834
11289WAT     H234270   2.416   0.173   5.337  1.9723 -1.4692 -0.8637
11290WAT      O34271   7.411   1.594   5.751  0.3348  0.0711 -0.3112
11290WAT     H134272   7.495   1.554   5.731  1.3177  1.1147  1.4066
11290WAT     H234273   7.346   1.538   5.708  1.7091 -2.4201  0.6574
11291WAT      O34274   0.464   3.494   0.592 -0.2862 -0.3443  0.1616
11291WAT     H134275   0.434   3.495   0.683  0.0747  0.8194  0.2892
11291WAT     H234276   0.547   3.445   0.595  1.1215  1.9446  0.9727
11292WAT      O34277   1.593   7.069   4.210  0.4686 -0.6054 -0.5275
11292WAT     H134278   1.677   7.101   4.244  0.8417 -1.2184 -0.8693
11292WAT     H234279   1.551   7.028   4.286  0.5752 -0.4939 -0.4079
11293WAT      O34280   3.209   6.157   2.251  0.2070  0.0240 -0.6105
11293WAT     H134281   3.236   6.091   2.315 -0.2229 -0.6025 -1.0720
11293WAT     H234282   3.189   6.234   2.304 -1.5606 -0.9322  0.1716
11294WAT      O34283   1.197   5.413   3.754 -0.2460  0.6229 -0.2837
11294WAT     H134284   1.275   5.457   3.790  0.2281 -1.4036  1.3530
11294WAT     H234285   1.137   5.406   3.828 -0.5720 -0.8250 -0.6535
   7.65430   7.21656   6.24971   0.00000   0.00000   2.55143   0.00000  -2.55143   3.60827
